9
EQ 0  Energy    = -304.126596279381   Spin(**2) = 0.0  ZPVE      = 0.065657743834
C	      -1.786737	      -0.426638	       0.000024
C	      -0.417545	       0.170339	      -0.000059
O	       0.534199	      -0.786742	      -0.000079
O	      -0.129284	       1.338124	      -0.000011
O	       1.838150	      -0.242424	       0.000060
H	      -1.748100	      -1.512820	      -0.001060
H	      -2.316140	      -0.069220	      -0.883079
H	      -2.315170	      -0.071148	       0.884506
H	       1.660590	       0.719314	       0.000087
9
EQ 1  Energy    = -303.999872980112   Spin(**2) = 0.0  ZPVE      = 0.081832824576
C	      -1.627205	      -0.573869	      -0.000451
C	      -0.363008	       0.082116	      -0.000058
O	       0.651565	      -0.827826	      -0.000179
O	      -0.121007	       1.281228	       0.000348
O	       1.908835	      -0.165632	       0.000141
H	      -1.864702	      -1.621072	      -0.000593
H	      -2.438104	       0.085337	      -0.365991
H	      -2.437784	       0.084860	       0.366788
H	       1.611373	       0.773643	       0.000384
9
EQ 2  Energy    = -303.995949777098   Spin(**2) = 0.0  ZPVE      = 0.080419884788
C	      -1.795369	      -0.525559	       0.273109
C	      -0.531840	       0.099034	       0.162621
O	       0.489841	      -0.834765	      -0.010931
O	      -0.233682	       1.301770	       0.260685
O	       1.670574	      -0.165404	      -0.442101
H	      -1.878882	      -1.581802	       0.061697
H	      -1.213924	      -0.035054	      -0.628779
H	      -2.644623	       0.107465	       0.483495
H	       1.457870	       0.753099	      -0.159407
9
EQ 3  Energy    = -304.073679110978   Spin(**2) = 0.0  ZPVE      = 0.076145218947
C	      -1.719787	      -0.407688	      -0.000247
C	      -0.289231	      -0.044796	       0.000449
O	       0.607050	      -0.943414	       0.017371
O	       0.083987	       1.190941	      -0.016465
O	       1.910428	      -0.389011	       0.014173
H	      -1.830652	      -1.490156	       0.018558
H	      -2.194130	       0.002740	      -0.894640
H	      -2.203372	       0.034637	       0.873744
H	       0.955671	       1.165533	      -0.012553
9
EQ 4  Energy    = -303.998951809721   Spin(**2) = 0.0  ZPVE      = 0.081753453898
C	      -1.752877	      -0.207031	       0.084305
C	      -0.397118	       0.224202	       0.138372
O	       0.476689	      -0.684530	      -0.390516
O	       0.012046	       1.280340	       0.594451
O	       1.809096	      -0.197485	      -0.306708
H	      -1.891989	      -1.302260	      -0.008247
H	      -1.966080	      -0.991685	      -0.668379
H	      -2.618304	       0.323375	       0.432722
H	       1.648500	       0.673859	       0.124390
9
EQ 5  Energy    = -304.033540370579   Spin(**2) = 0.0  ZPVE      = 0.080800883407
C	      -1.681384	      -0.406379	       0.029011
C	      -0.263126	       0.085911	      -0.003699
O	       0.615263	      -0.871376	      -0.058939
O	       0.006225	       1.291538	       0.021569
O	       1.840642	      -0.137482	      -0.077262
H	      -1.722091	      -1.493754	      -0.002616
H	      -2.218287	       0.013444	      -0.824450
H	      -2.158285	      -0.040417	       0.940914
H	       0.901005	       0.677300	      -0.024140
9
EQ 6  Energy    = -304.055928950112   Spin(**2) = 0.0  ZPVE      = 0.071432630274
C	      -1.815639	      -0.647148	      -0.000533
C	      -0.250220	       0.115686	      -0.000216
O	       0.771064	      -0.733408	       0.001164
O	      -0.162616	       1.311119	      -0.000990
O	       2.029866	      -0.053641	       0.001791
H	      -2.581001	      -1.596874	      -0.000785
H	      -2.212041	      -0.080718	      -0.853515
H	      -2.212188	      -0.081108	       0.852656
H	       1.752736	       0.884876	       0.000816
9
EQ 7  Energy    = -304.100645526573   Spin(**2) = 0.0  ZPVE      = 0.066043153069
C	      -1.429335	      -0.559065	      -0.122996
C	      -0.051777	       0.005825	       0.035448
O	       0.703808	      -0.389719	       1.133387
O	       0.021515	       1.301922	      -0.336394
O	       1.035565	      -0.808449	      -0.260955
H	      -1.433633	      -1.601795	       0.191224
H	      -1.736093	      -0.487944	      -1.168094
H	      -2.131694	       0.012401	       0.486507
H	       0.929837	       1.606967	      -0.212475
9
EQ 8  Energy    = -304.071865920275   Spin(**2) = 0.0  ZPVE      = 0.06566712757
C	      -1.469022	      -0.490448	       0.050166
C	      -0.193648	       0.243576	       0.048703
O	       0.898175	      -0.271608	      -0.314386
O	      -0.178043	       1.491053	       0.440390
O	       0.827966	      -1.620287	      -0.728464
H	      -1.351413	      -1.378674	       0.675837
H	      -1.655353	      -0.853733	      -0.963577
H	      -2.278869	       0.144030	       0.402869
H	       0.720171	       1.854876	       0.388852
9
EQ 9  Energy    = -304.076946353876   Spin(**2) = 0.0  ZPVE      = 0.065296894179
C	      -1.662740	      -0.853377	       0.010158
C	      -0.614973	      -0.031619	       0.035145
O	       0.582696	      -0.440868	      -0.472301
O	      -0.568886	       1.257277	       0.420866
O	       1.616632	      -0.209490	       0.501398
H	      -1.521260	      -1.886536	      -0.274182
H	      -2.659183	      -0.497700	       0.240557
H	      -1.371632	       1.480488	       0.904119
H	       1.866771	       0.705528	       0.304289
9
EQ 10  Energy    = -304.122393718154   Spin(**2) = 0.0  ZPVE      = 0.065315557474
C	      -1.810484	      -0.182961	       0.042895
C	      -0.326541	      -0.417856	      -0.026616
O	       0.229058	      -1.478191	      -0.152197
O	       0.314875	       0.771875	       0.056301
O	       1.724844	       0.579443	      -0.039418
H	      -2.235285	      -0.866319	       0.779640
H	      -2.243496	      -0.420892	      -0.931522
H	      -2.054616	       0.845875	       0.304676
H	       2.006378	       1.478746	       0.181940
9
EQ 11  Energy    = -304.043067406286   Spin(**2) = 0.0  ZPVE      = 0.064434032618
C	      -1.582208	      -0.332476	       0.129734
C	      -0.380622	       0.520840	       0.275876
O	       0.749757	      -1.290373	      -1.001031
O	      -0.246229	       1.652618	       0.619929
O	       0.818763	      -0.200340	      -0.031159
H	      -1.455865	      -1.250134	       0.707067
H	      -1.673401	      -0.622963	      -0.918324
H	      -2.452627	       0.226362	       0.466023
H	       1.542395	       0.415251	      -0.247727
9
EQ 12  Energy    = -304.22418328396   Spin(**2) = 0.0  ZPVE      = 0.068321656759
C	      -1.733867	      -0.531013	      -0.154550
C	       0.402635	       0.237067	       0.421136
O	      -0.330875	      -0.469860	      -0.441054
O	      -0.009466	       0.813228	       1.397588
O	       1.688503	       0.235844	       0.070865
H	      -1.902066	      -0.995946	       0.818166
H	      -2.166976	      -1.138797	      -0.945920
H	      -2.166255	       0.470760	      -0.163671
H	       1.803371	      -0.280675	      -0.737542
9
EQ 13  Energy    = -304.121458452084   Spin(**2) = 0.0  ZPVE      = 0.065866590392
C	      -1.394828	      -0.073923	      -0.235008
C	      -0.346973	       0.330448	       0.755759
O	       0.967050	       0.139240	       0.423447
O	      -0.537406	       0.819626	       1.840571
O	       1.129479	      -0.375365	      -0.893768
H	      -1.306842	      -1.135164	      -0.475426
H	      -1.275314	       0.483525	      -1.165885
H	      -2.369143	       0.132430	       0.204047
H	       1.441938	      -1.272988	      -0.705641
9
EQ 14  Energy    = -304.030452827609   Spin(**2) = 0.0  ZPVE      = 0.082702340629
C	      -1.330206	      -0.251060	      -0.079828
C	      -0.291827	       0.281268	       0.863531
O	       0.969179	       0.265760	       0.352285
O	      -0.454580	       0.702549	       1.978025
O	       1.042532	      -0.254555	      -0.979276
H	      -1.811909	      -1.144655	       0.311659
H	      -0.751713	      -0.536531	      -1.000893
H	      -2.054810	       0.512373	      -0.355508
H	       0.003297	      -0.456364	      -1.089606
9
EQ 15  Energy    = -303.988519874369   Spin(**2) = 0.0  ZPVE      = 0.075070268093
C	      -1.693985	      -0.267044	       0.194635
C	      -0.712387	       0.367138	       0.900404
O	       0.711534	      -0.077214	       0.484284
O	      -0.572476	       1.230569	       1.747466
O	       0.674135	      -0.564579	      -0.912726
H	      -1.551503	      -1.263621	      -0.207655
H	      -0.142806	      -0.368145	      -1.156942
H	      -2.711270	       0.070055	       0.342005
H	       1.318721	      -0.008372	      -1.391082
9
EQ 16  Energy    = -304.037577985964   Spin(**2) = 0.0  ZPVE      = 0.064685301777
C	      -1.704113	      -0.328878	       0.107845
C	      -0.439486	       0.285342	      -0.392953
O	       0.709328	      -0.482608	       0.014461
O	      -0.257147	       1.235036	      -1.075823
O	       2.012380	       0.160253	      -0.003031
H	      -1.706437	      -1.407357	      -0.061774
H	      -2.541212	       0.132061	      -0.412673
H	      -1.803084	      -0.145215	       1.181516
H	       0.595837	      -0.955249	       0.856074
9
EQ 17  Energy    = -304.175990237488   Spin(**2) = 0.0  ZPVE      = 0.071390857295
C	      -1.799147	      -0.475883	      -0.059252
C	       0.392659	       0.255931	       0.457920
O	      -0.364053	      -0.437330	      -0.387796
O	       0.017543	       0.838299	       1.447013
O	       1.674219	       0.238948	       0.080072
H	      -1.789817	      -1.296722	       0.813273
H	      -2.172622	      -1.102089	      -0.880877
H	      -2.134769	       0.596895	      -0.473594
H	       1.760990	      -0.277440	      -0.731741
9
EQ 18  Energy    = -304.083074060259   Spin(**2) = 0.0  ZPVE      = 0.078357571812
C	      -1.300598	      -0.489679	      -0.076412
C	       0.038161	      -0.055794	       0.547569
O	      -0.172940	      -1.319520	       0.158110
O	      -0.063932	       0.369568	       1.693915
O	       0.921455	       0.619917	      -0.287289
H	      -2.030252	      -0.504395	       0.728245
H	      -1.782493	      -0.885014	      -0.987796
H	      -1.145654	       0.534849	      -0.455132
H	       1.121254	       0.070677	      -1.056191
9
EQ 19  Energy    = -304.077501120186   Spin(**2) = 0.0  ZPVE      = 0.065532076135
C	      -1.851342	      -0.684004	      -0.570083
C	      -0.727036	      -0.068222	      -0.210112
O	       0.468812	      -0.734363	      -0.370130
O	      -0.642488	       1.197349	       0.217614
O	       1.374327	      -0.304634	       0.659506
H	      -1.823168	      -1.715453	      -0.891637
H	      -2.783504	      -0.136317	      -0.586526
H	       0.233833	       1.308328	       0.616189
H	       2.142495	      -0.058578	       0.122878
9
EQ 20  Energy    = -304.077656702586   Spin(**2) = 0.0  ZPVE      = 0.065507849121
C	      -1.806336	      -0.638357	       0.665218
C	      -0.865000	      -0.109064	      -0.112518
O	       0.263377	      -0.856663	      -0.389353
O	      -0.950278	       1.069440	      -0.741128
O	       1.375642	       0.020606	      -0.588881
H	      -1.637808	      -1.593284	       1.142583
H	      -0.062664	       1.292094	      -1.060089
H	      -2.755601	      -0.134003	       0.783210
H	       1.758632	       0.068015	       0.301347
9
EQ 21  Energy    = -304.06878671609   Spin(**2) = 0.0  ZPVE      = 0.066178777127
C	      -1.625691	      -0.439928	       0.014905
C	      -0.197813	      -0.049420	      -0.114653
O	       0.651208	      -0.950862	      -0.340109
O	       0.205210	       1.186552	      -0.006825
O	       1.990012	      -0.563700	      -0.464122
H	      -1.723866	      -1.518466	      -0.091687
H	      -2.216798	       0.060008	      -0.757211
H	      -2.007121	      -0.131944	       0.991796
H	      -0.543743	       1.773676	       0.163914
9
EQ 22  Energy    = -304.087247844334   Spin(**2) = 0.0  ZPVE      = 0.07963312198
C	      -1.627420	      -0.692362	      -0.018884
C	       0.443650	       0.308850	       0.405496
O	      -0.276790	      -0.566352	      -0.332809
O	       0.034957	       1.016263	       1.285996
O	       1.717115	       0.281886	       0.021114
H	      -1.999075	      -1.301319	       0.782411
H	      -2.282373	      -0.480904	      -0.843908
H	      -2.248250	       0.130711	      -0.337216
H	       1.823188	      -0.356164	      -0.697181
9
EQ 23  Energy    = -304.176150204138   Spin(**2) = 0.0  ZPVE      = 0.072259804404
C	      -1.771644	      -0.663003	      -0.113678
C	       0.386608	       0.150253	       0.445894
O	      -0.369880	      -0.408429	      -0.490287
O	       0.018230	       0.473961	       1.553404
O	       1.642028	       0.318193	       0.033146
H	      -1.679324	      -0.679541	       1.083402
H	      -2.099373	      -1.158604	      -1.151437
H	      -2.269713	       0.315305	      -0.222807
H	       1.728070	      -0.007525	      -0.872620
9
EQ 24  Energy    = -304.06134561107   Spin(**2) = 0.0  ZPVE      = 0.061282469257
C	      -1.869813	      -0.074443	      -0.190848
C	      -1.172684	       1.037852	      -0.289813
O	       0.820615	      -1.509991	       0.491319
O	      -0.542848	       2.014551	      -0.361619
O	       1.442386	      -0.640235	      -0.456218
H	      -0.101693	      -1.193389	       0.444082
H	      -1.936292	      -0.726593	      -1.052338
H	      -2.495908	      -0.224652	       0.679016
H	       1.845456	       0.023019	       0.120238
9
EQ 25  Energy    = -304.060894697968   Spin(**2) = 0.0  ZPVE      = 0.061327185932
C	      -1.744272	      -0.054562	      -0.041464
C	      -1.766844	       1.258253	      -0.115742
O	       1.121612	      -0.750724	       0.877892
O	      -1.771771	       2.421866	      -0.171280
O	       1.165546	      -1.424908	      -0.380761
H	       0.223751	      -0.370018	       0.852228
H	      -1.211491	      -0.617385	      -0.799441
H	      -2.356223	      -0.548616	       0.701952
H	       1.659655	      -0.795121	      -0.922994
9
EQ 26  Energy    = -304.053750094986   Spin(**2) = 0.0  ZPVE      = 0.080983394116
C	      -1.524817	      -0.124625	      -0.162522
C	       0.106483	      -0.137763	       0.533748
O	      -0.643368	       0.958489	      -0.058754
O	       0.334382	      -0.195583	       1.748551
O	       1.064203	      -0.570154	      -0.368615
H	      -2.352659	      -0.147352	       0.546364
H	      -0.661638	      -0.830491	       0.377930
H	      -1.695269	      -0.533217	      -1.159105
H	       0.957686	      -0.078694	      -1.192579
9
EQ 27  Energy    = -304.134195152515   Spin(**2) = 0.0  ZPVE      = 0.069783541659
C	      -1.888367	      -0.563126	      -0.101250
C	       0.249187	       0.197067	       0.367029
O	      -0.484256	      -0.505370	      -0.447517
O	      -0.006439	       0.807523	       1.350083
O	       1.731761	       0.171928	      -0.127075
H	      -2.008969	      -1.021534	       0.880678
H	      -2.345103	      -1.178449	      -0.871819
H	      -2.312788	       0.441195	      -0.107064
H	       2.649977	      -0.008626	      -0.678048
9
EQ 28  Energy    = -304.225436628287   Spin(**2) = 0.0  ZPVE      = 0.068507533632
C	      -1.778531	      -0.586144	      -0.117901
C	       0.405999	       0.077152	       0.352757
O	      -0.378221	      -0.677969	      -0.405917
O	       0.045268	       0.816331	       1.240930
O	       1.670838	      -0.113219	      -0.026946
H	      -1.978640	      -0.902748	       0.907166
H	      -2.264759	      -1.256824	      -0.823057
H	      -2.131384	       0.436568	      -0.261130
H	       2.225047	       0.442103	       0.536062
9
EQ 29  Energy    = -304.131329957628   Spin(**2) = 0.0  ZPVE      = 0.078976401963
C	      -1.744138	      -0.581322	      -0.150332
C	       0.507872	       0.030197	       0.082427
O	      -0.366192	      -0.769793	      -0.508791
O	       0.202512	       0.905191	       0.903250
O	       1.740068	      -0.158729	      -0.256004
H	      -1.884394	      -0.757655	       0.917160
H	      -2.297224	      -1.314822	      -0.732504
H	      -2.066079	       0.429397	      -0.405488
H	       1.492578	       0.558145	       0.415300
9
EQ 30  Energy    = -304.070454483546   Spin(**2) = 0.0  ZPVE      = 0.059168106457
C	      -1.847784	      -0.729732	      -0.331117
C	       0.109564	       1.037304	       0.874339
O	      -1.031677	       0.778068	       0.760678
O	       1.193482	       1.402977	       1.045176
O	       0.899146	      -1.244326	      -0.271138
H	      -2.564326	      -0.912781	       0.486701
H	      -0.082845	      -1.277782	      -0.427718
H	      -2.346400	       0.016979	      -0.971565
H	       1.256777	      -0.905644	      -1.096814
9
EQ 31  Energy    = -304.221892336095   Spin(**2) = 0.0  ZPVE      = 0.068430396391
C	      -1.774928	      -0.453464	      -0.095412
C	       0.345119	       0.442309	       0.539189
O	      -0.972579	       0.584681	       0.486349
O	       1.063196	       1.288043	       1.019358
O	       0.771072	      -0.711823	       0.014555
H	      -1.657336	      -1.386667	       0.457367
H	      -1.507967	      -0.605734	      -1.142232
H	      -2.800990	      -0.099351	      -0.018340
H	       1.733400	      -0.726661	       0.097061
9
EQ 32  Energy    = -304.085072600778   Spin(**2) = 0.0  ZPVE      = 0.078425845374
C	      -1.354507	      -0.454590	      -0.073991
C	       0.001625	       0.252446	       0.053939
O	      -0.534019	      -0.004223	      -1.138356
O	      -0.040452	       1.328851	       0.651731
O	       1.079675	      -0.597791	       0.275502
H	      -0.878644	      -0.953998	       0.786573
H	      -1.874254	      -1.352963	      -0.450901
H	      -2.106973	       0.263079	       0.241303
H	       1.523168	      -0.245561	       1.056163
9
EQ 33  Energy    = -304.214176893503   Spin(**2) = 0.0  ZPVE      = 0.068068105679
C	      -1.281470	      -0.747672	      -0.677042
C	       0.415075	       0.071171	       0.834121
O	      -0.614566	      -0.746435	       0.588245
O	       0.960716	       0.063964	       1.908440
O	       0.821118	       0.891396	      -0.140254
H	      -1.753750	       0.218961	      -0.875086
H	      -2.056228	      -1.507057	      -0.598391
H	      -0.597930	      -1.025270	      -1.484831
H	       0.314178	       0.811909	      -0.956405
9
EQ 34  Energy    = -304.073484248718   Spin(**2) = 0.0  ZPVE      = 0.064072770934
C	      -1.646573	      -0.797330	      -0.765620
C	       0.382923	       0.229307	       0.761484
O	      -0.806706	      -0.491836	       0.588362
O	       0.784970	       0.494499	       1.852588
O	       0.921204	       0.516553	      -0.391066
H	      -1.280783	      -0.634664	       1.419750
H	      -0.878099	      -1.380444	      -1.300124
H	      -1.664919	       0.220646	      -1.190402
H	       0.341526	       0.189654	      -1.111452
9
EQ 35  Energy    = -304.075565365397   Spin(**2) = 0.0  ZPVE      = 0.065358685617
C	      -1.771206	       0.220917	       0.167700
C	      -0.516686	      -0.209486	       0.035196
O	      -0.067023	      -1.271705	      -0.655462
O	       0.478025	       0.399267	       0.742865
O	       1.531512	       0.789849	      -0.159615
H	      -2.603738	      -0.338599	      -0.240741
H	      -0.773825	      -1.607959	      -1.217277
H	      -1.965756	       1.130272	       0.718784
H	       1.308533	       1.722578	      -0.298017
9
EQ 36  Energy    = -304.164259428929   Spin(**2) = 0.0  ZPVE      = 0.067459328622
C	      -1.579712	       0.502808	      -0.012125
C	      -0.287462	      -0.160197	       0.091791
O	      -0.262398	      -1.465655	       0.508682
O	      -0.607668	       0.815733	       1.027425
O	       0.787977	       0.202908	      -0.684436
H	       0.607951	      -1.635126	       0.891293
H	      -1.716938	       1.286237	      -0.752621
H	      -2.475706	      -0.000820	       0.341449
H	       0.853918	      -0.427104	      -1.411071
9
EQ 37  Energy    = -304.069245685656   Spin(**2) = 0.0  ZPVE      = 0.075992559922
C	      -1.720157	      -0.482818	      -0.219536
C	       0.276611	       0.018430	       0.986246
O	      -0.972720	      -0.180044	       1.118216
O	       1.143367	       0.348312	       1.731550
O	       0.639871	      -0.270005	      -0.429472
H	      -2.193554	      -1.443953	       0.016271
H	      -0.179565	      -0.341300	      -0.820373
H	      -2.508804	       0.278496	      -0.190658
H	       1.330571	       0.308131	      -0.790280
9
EQ 38  Energy    = -304.059515238397   Spin(**2) = 0.0  ZPVE      = 0.060737773656
C	      -2.458912	       0.282749	       0.176397
C	      -1.292064	       0.855709	       0.043190
O	       0.931408	      -1.524478	       0.036407
O	      -0.251900	       1.384591	      -0.077718
O	       1.940080	      -0.518188	       0.148310
H	       0.952876	      -1.718227	      -0.910487
H	      -2.856649	      -0.305334	      -0.639764
H	      -3.001508	       0.398065	       1.105195
H	       1.392022	       0.283406	       0.165184
9
EQ 39  Energy    = -304.162532078316   Spin(**2) = 0.0  ZPVE      = 0.066789435227
C	      -1.275861	      -0.539358	      -0.346882
C	       0.015494	      -0.166313	       0.231903
O	      -0.784639	       0.839647	      -0.324693
O	       0.261520	      -0.117829	       1.574747
O	       1.216998	      -0.420418	      -0.367900
H	      -2.135928	      -0.725490	       0.293269
H	      -0.566716	       0.052654	       2.034680
H	      -1.325445	      -0.988571	      -1.336788
H	       1.097729	      -0.368158	      -1.321771
9
EQ 40  Energy    = -304.072270578016   Spin(**2) = 0.0  ZPVE      = 0.063791981718
C	      -1.856888	      -1.183340	      -0.408186
C	       0.312740	       0.505913	       0.370178
O	      -0.910369	       0.304629	      -0.210095
O	       0.601361	       1.525008	       0.932621
O	       1.046563	      -0.568070	       0.174739
H	      -1.446873	      -1.672958	       0.495997
H	      -1.207794	      -1.576407	      -1.212447
H	      -1.501299	       1.042261	      -0.006791
H	       1.914558	      -0.420303	       0.575214
9
EQ 41  Energy    = -304.216562619516   Spin(**2) = 0.0  ZPVE      = 0.068825963884
C	      -1.039238	      -0.533924	       0.139055
C	       0.055032	       0.413599	       0.622823
O	      -0.569641	      -1.370527	      -0.900580
O	      -0.131376	       1.271162	       1.454344
O	       1.246466	       0.200539	       0.069208
H	      -1.328667	      -1.161457	       0.986725
H	      -0.839768	      -0.996641	      -1.745404
H	      -1.909893	       0.059468	      -0.151012
H	       1.128856	      -0.541054	      -0.554720
9
EQ 42  Energy    = -304.097763492099   Spin(**2) = 0.0  ZPVE      = 0.076828967009
C	      -1.556485	      -0.963941	      -0.779059
C	       0.239994	       0.084530	       0.302190
O	      -0.560308	       0.269789	      -0.653937
O	       0.203202	      -0.971889	       1.031678
O	       1.152273	       0.957961	       0.604514
H	      -2.510005	      -0.417193	      -0.747950
H	      -0.464826	      -1.431595	       0.680468
H	      -1.392072	      -1.209429	      -1.838203
H	       1.095369	       1.712736	      -0.000904
9
EQ 43  Energy    = -304.096943945674   Spin(**2) = 0.0  ZPVE      = 0.076855353859
C	      -1.963904	      -0.593276	       0.205499
C	       0.313181	      -0.067574	       0.208793
O	      -0.503340	      -0.828931	       0.785778
O	      -0.052571	       0.759867	      -0.709830
O	       1.563345	      -0.124376	       0.556670
H	      -2.209946	      -1.629830	      -0.066829
H	      -0.923734	       0.616594	      -0.769060
H	      -2.495572	      -0.403193	       1.149055
H	       2.088157	       0.505969	       0.041888
9
EQ 44  Energy    = -304.124465802736   Spin(**2) = 0.0  ZPVE      = 0.076787116047
C	      -1.014277	      -0.434394	       0.190765
C	       0.155080	       0.269130	       0.503628
O	      -0.892223	      -1.484943	      -0.865660
O	      -0.461809	       0.870953	       1.324946
O	       1.409425	       0.311847	       0.141257
H	      -1.336807	      -1.028240	       1.041214
H	      -0.992334	      -1.047053	      -1.716239
H	      -1.799102	       0.237605	      -0.147407
H	       1.543818	      -0.353740	      -0.552064
9
EQ 45  Energy    = -304.089929370351   Spin(**2) = 0.0  ZPVE      = 0.065126346552
C	      -1.847297	      -0.972788	      -0.487631
C	       0.279234	       0.031167	       0.242971
O	      -0.292357	      -0.712868	      -0.597766
O	      -0.330113	       0.612402	       1.219361
O	       1.554250	       0.267282	       0.178595
H	      -1.277885	       0.337685	       1.132921
H	      -2.239887	       0.062109	      -0.494158
H	      -1.928621	      -1.361062	       0.545746
H	       1.936483	      -0.203098	      -0.577728
9
EQ 46  Energy    = -304.063100530169   Spin(**2) = 0.0  ZPVE      = 0.063395054089
C	      -2.193085	      -0.646817	       0.097317
C	       0.423822	       0.291167	       0.306423
O	      -0.491020	      -0.604831	      -0.227188
O	       0.128351	       0.968735	       1.240351
O	       1.603533	       0.298733	      -0.285914
H	      -2.077115	      -0.981385	       1.144533
H	      -0.369411	      -0.858356	      -1.151799
H	      -2.309391	       0.448026	       0.202329
H	       1.740502	      -0.409615	      -0.927889
9
EQ 47  Energy    = -304.211124228753   Spin(**2) = 0.0  ZPVE      = 0.06782609205
C	      -1.066348	      -0.622792	       0.569177
C	       0.230460	      -0.672450	      -0.207919
O	       0.556718	      -1.642107	      -0.857634
O	      -1.199276	       0.578712	       1.281074
O	       0.965554	       0.435346	      -0.117773
H	      -2.049112	       0.555516	       1.730120
H	      -1.066124	      -1.505911	       1.222541
H	      -1.868448	      -0.769543	      -0.167518
H	       1.761746	       0.292207	      -0.650858
9
EQ 48  Energy    = -304.213738296068   Spin(**2) = 0.0  ZPVE      = 0.068124726961
C	      -1.366525	      -0.173821	      -0.031598
C	       0.045001	      -0.456369	      -0.518030
O	       0.286321	      -1.107834	      -1.509767
O	      -1.465994	       0.750439	       1.015943
O	       0.984729	       0.058669	       0.278570
H	      -1.010648	       0.386233	       1.781628
H	      -1.811029	      -1.148624	       0.214336
H	      -1.924081	       0.224601	      -0.882590
H	       1.847229	      -0.192686	      -0.083474
9
EQ 49  Energy    = -304.216094803009   Spin(**2) = 0.0  ZPVE      = 0.067799039447
C	      -1.297265	       0.148483	       0.041520
C	       0.115155	      -0.370762	      -0.108786
O	       0.662773	      -1.028665	       0.750661
O	      -1.839246	      -0.248716	       1.269356
O	       0.674394	      -0.028443	      -1.264725
H	      -1.142601	      -0.751393	       1.715260
H	      -1.892061	      -0.231248	      -0.799293
H	      -1.268456	       1.242316	      -0.049750
H	       1.572310	      -0.390962	      -1.289224
9
EQ 50  Energy    = -304.058836311583   Spin(**2) = 0.0  ZPVE      = 0.062679185867
C	      -2.091834	      -0.728979	       0.478864
C	       0.406683	       0.437837	       0.201740
O	      -0.390149	      -0.652053	      -0.077098
O	      -0.006606	       1.378496	       0.803334
O	       1.648456	       0.329866	      -0.245976
H	      -2.132735	      -1.812555	       0.250932
H	      -0.162056	      -1.130966	      -0.887351
H	      -2.481896	      -0.268782	      -0.450008
H	       1.896437	      -0.557786	      -0.533909
9
EQ 51  Energy    = -304.07826964602   Spin(**2) = 0.0  ZPVE      = 0.083772810746
C	      -1.050791	      -0.314655	      -0.045687
C	       0.091237	       0.382688	       0.668414
O	      -0.622808	      -0.958707	      -1.305724
O	      -0.044752	       0.983411	       1.706244
O	       1.246513	       0.255308	       0.031448
H	      -1.177253	      -1.373657	       0.248128
H	      -0.906909	      -1.605556	      -0.532438
H	      -1.980325	       0.250977	      -0.080280
H	       1.056858	      -0.278644	      -0.769665
9
EQ 52  Energy    = -304.212388238157   Spin(**2) = 0.0  ZPVE      = 0.067825220592
C	      -0.785634	      -0.781210	      -0.106164
C	       0.218499	       0.231843	       0.396793
O	      -1.594000	      -0.174881	      -1.076713
O	       0.316076	       1.377487	       0.028212
O	       1.008048	      -0.318561	       1.328960
H	      -0.220423	      -1.639870	      -0.495452
H	      -2.226490	      -0.833395	      -1.377418
H	      -1.355672	      -1.139295	       0.762724
H	       1.634086	       0.358865	       1.622733
9
EQ 53  Energy    = -304.186699141029   Spin(**2) = 0.0  ZPVE      = 0.063819233745
C	      -2.100599	       0.075050	      -1.230517
C	       1.138409	      -0.748821	       0.901488
O	      -1.646926	       0.686060	      -0.283542
O	       2.214503	      -1.189132	       1.228218
O	       1.005857	       0.322503	       0.133180
H	      -3.170229	       0.131749	      -1.479305
H	       0.183375	      -1.202707	       1.215697
H	      -1.466569	      -0.555040	      -1.872961
H	       0.049321	       0.511306	      -0.013463
9
EQ 54  Energy    = -304.086702869766   Spin(**2) = 0.0  ZPVE      = 0.065057405099
C	      -1.948615	      -0.917408	      -0.562164
C	       0.152768	       0.076583	       0.250684
O	      -0.450193	      -0.480149	      -0.677326
O	      -0.461522	       0.487203	       1.324943
O	       1.450764	       0.277187	       0.212327
H	       0.166125	       0.885014	       1.945168
H	      -2.151238	      -0.967949	      -1.644671
H	      -2.419468	       0.028921	      -0.240234
H	       1.817017	      -0.076326	      -0.611103
9
EQ 55  Energy    = -304.071369645398   Spin(**2) = 0.0  ZPVE      = 0.063718302973
C	      -2.290887	      -0.271982	       0.089887
C	       0.424596	       0.186929	       0.482830
O	      -0.666066	       0.131473	      -0.346029
O	       0.314611	       0.361473	       1.658969
O	       1.519769	       0.034785	      -0.241254
H	      -2.009028	      -1.006118	       0.868347
H	      -0.459573	      -0.145582	      -1.249398
H	      -2.457318	       0.652127	       0.673234
H	       2.291579	       0.088163	       0.340025
9