9
TS 0  Energy    = -304.126516904453   Spin(**2) = 0.0  ZPVE      = 0.065639970152
C	      -1.787817	      -0.416531	       0.004924
C	      -0.405548	       0.143779	       0.119488
O	       0.499221	      -0.667503	      -0.468650
O	      -0.064362	       1.178437	       0.652206
O	       1.813708	      -0.139925	      -0.362382
H	      -1.832406	      -1.398340	       0.480953
H	      -2.054799	      -0.536545	      -1.047124
H	      -2.485442	       0.263593	       0.489908
H	       1.637408	       0.691820	       0.131065
9
TS 1  Energy    = -304.047911616893   Spin(**2) = 0.0  ZPVE      = 0.064195777134
C	      -1.638560	      -0.430082	       0.005099
C	      -0.256943	       0.076000	       0.145906
O	       0.552940	      -0.496970	       0.970385
O	       0.031384	       1.187152	      -0.464594
O	       1.520063	      -0.735053	      -0.161701
H	      -1.579148	      -1.373637	      -0.546438
H	      -2.273540	       0.272338	      -0.530246
H	      -2.039299	      -0.656679	       0.995454
H	       1.003068	       1.275715	      -0.413476
9
TS 2  Energy    = -304.001471384873   Spin(**2) = 0.0  ZPVE      = 0.059777941939
C	      -1.819333	      -0.644922	      -0.086375
C	      -0.539519	      -0.048143	       0.038641
O	       0.601589	      -0.641767	      -0.256650
O	      -0.612739	       1.126599	       0.542033
O	       1.723935	       0.009034	       0.345959
H	      -1.913252	      -1.726172	      -0.047287
H	      -2.419671	      -0.171972	      -0.864257
H	      -1.734951	       0.649110	       0.712725
H	       2.033903	       0.567019	      -0.384400
9
TS 3  Energy    = -304.028753558991   Spin(**2) = 0.0  ZPVE      = 0.062191991221
C	      -1.891327	      -0.405740	       0.013371
C	      -0.378383	      -0.186453	       0.002375
O	       0.365221	      -1.175431	      -0.109400
O	       0.044935	       0.983105	       0.090925
O	       1.977273	       0.129084	      -0.051307
H	      -2.121679	      -1.464877	       0.089032
H	      -2.289821	       0.001503	      -0.917293
H	      -2.318191	       0.144565	       0.851141
H	       1.931935	       1.093029	       0.031546
9
TS 4  Energy    = -303.99918640702   Spin(**2) = 0.0  ZPVE      = 0.059340709872
C	      -1.964302	      -0.545250	      -0.123182
C	      -0.156140	       0.248916	       0.579313
O	       0.044856	      -0.413246	      -0.404063
O	      -0.148572	       0.918007	       1.525433
O	       2.048337	       0.025259	      -0.216051
H	      -2.137439	      -1.058024	       0.818232
H	      -2.001736	      -1.168366	      -1.007187
H	      -2.390236	       0.447687	      -0.232347
H	       2.025194	       0.663803	      -0.939760
9
TS 5  Energy    = -304.102488895437   Spin(**2) = 0.0  ZPVE      = 0.064765090956
C	      -1.623173	      -0.283654	       0.009850
C	      -0.399755	       0.222295	       0.701616
O	       0.755576	      -0.530613	       0.388970
O	      -0.326042	       1.127705	       1.479935
O	       1.402251	       0.214721	      -0.655125
H	      -1.778232	      -1.332985	       0.275072
H	      -1.467967	      -0.241473	      -1.071730
H	      -2.493228	       0.308645	       0.287821
H	       1.250532	      -0.365857	      -1.416020
9
TS 6  Energy    = -304.103498957802   Spin(**2) = 0.0  ZPVE      = 0.064826379686
C	      -1.693475	      -0.412023	      -0.026771
C	      -0.456442	       0.191210	       0.549084
O	       0.694167	      -0.600504	       0.325304
O	      -0.359215	       1.208363	       1.173040
O	       1.233592	      -0.104284	      -0.907765
H	      -1.847998	      -1.400639	       0.413983
H	      -1.550621	      -0.554182	      -1.101276
H	      -2.556148	       0.224608	       0.161845
H	       1.856104	       0.566237	      -0.587054
9
TS 7  Energy    = -304.119068324437   Spin(**2) = 0.0  ZPVE      = 0.065341942544
C	      -1.500810	      -0.306634	      -0.195249
C	      -0.539427	       0.653895	       0.439454
O	       0.787369	       0.331078	       0.550704
O	      -0.832278	       1.736992	       0.880750
O	       1.113492	      -0.975574	       0.092604
H	      -1.041336	      -1.237438	      -0.512230
H	      -1.954398	       0.197915	      -1.051345
H	      -2.294657	      -0.507916	       0.527061
H	       1.582008	      -0.773533	      -0.731360
9
TS 8  Energy    = -304.019931119733   Spin(**2) = 0.0  ZPVE      = 0.060314461709
C	      -1.724183	      -0.363126	       0.027222
C	      -0.444823	       0.286348	      -0.376996
O	       0.655975	      -0.492447	       0.142828
O	      -0.238905	       1.243308	      -1.044570
O	       2.035552	       0.143921	      -0.101459
H	      -1.760906	      -1.377668	      -0.376661
H	      -2.557958	       0.223406	      -0.353533
H	      -1.777589	      -0.434187	       1.116072
H	       1.132800	      -0.110770	       0.967485
9
TS 9  Energy    = -304.073006414623   Spin(**2) = 0.0  ZPVE      = 0.064655922987
C	      -1.830085	      -0.713625	      -0.470518
C	      -0.704768	      -0.056824	      -0.213994
O	       0.502249	      -0.666490	      -0.448423
O	      -0.616800	       1.251706	       0.133719
O	       1.355584	      -0.435038	       0.683219
H	      -1.801624	      -1.761357	      -0.738545
H	      -2.778338	      -0.193351	      -0.443108
H	      -0.634669	       1.330668	       1.093978
H	       1.828413	       0.363097	       0.404062
9
TS 10  Energy    = -304.054025850922   Spin(**2) = 0.0  ZPVE      = 0.064099512516
C	      -1.619862	      -0.459528	       0.007801
C	      -0.200209	      -0.048060	      -0.112987
O	       0.660028	      -0.939384	      -0.342397
O	       0.143076	       1.225937	      -0.069718
O	       1.988177	      -0.585040	      -0.432160
H	      -1.720131	      -1.539558	      -0.084950
H	      -2.203922	       0.040892	      -0.769515
H	      -2.009599	      -0.130399	       0.975327
H	       0.282405	       1.553925	       0.828988
9
TS 11  Energy    = -304.028748342728   Spin(**2) = 0.0  ZPVE      = 0.062273057557
C	      -1.866477	      -0.499301	       0.029322
C	      -0.373194	      -0.173269	       0.000582
O	       0.431506	      -1.097979	      -0.203762
O	      -0.027330	       1.014072	       0.158092
O	       1.952942	       0.307154	      -0.096714
H	      -2.016557	      -1.559110	       0.218539
H	      -2.273560	      -0.237014	      -0.949164
H	      -2.352477	       0.105967	       0.792327
H	       1.845108	       1.258265	       0.051168
9
TS 12  Energy    = -304.222922191413   Spin(**2) = 0.0  ZPVE      = 0.068101051554
C	      -1.729317	      -0.612189	      -0.085019
C	       0.384751	       0.394486	       0.286062
O	      -0.306229	      -0.606997	      -0.263239
O	      -0.059934	       1.314188	       0.927864
O	       1.686558	       0.259671	       0.034646
H	      -1.996932	      -1.538024	       0.424257
H	      -2.188100	      -0.582265	      -1.073343
H	      -2.037790	       0.249928	       0.504483
H	       1.831994	      -0.538190	      -0.490693
9
TS 13  Energy    = -304.019844346366   Spin(**2) = 0.0  ZPVE      = 0.059673917481
C	      -1.562378	      -0.275530	       0.020314
C	      -0.739661	       0.825595	      -0.282728
O	       0.648083	      -1.531078	       0.223580
O	      -0.435384	       1.911941	      -0.526768
O	       1.010382	      -0.241073	      -0.227062
H	      -0.722523	      -1.132766	       0.259031
H	      -2.136242	      -0.561871	      -0.863484
H	      -2.207107	      -0.031994	       0.865782
H	       1.464792	       0.155560	       0.531724
9
TS 14  Energy    = -304.003176754026   Spin(**2) = 0.0  ZPVE      = 0.057415257711
C	      -1.770182	      -0.264854	       0.058091
C	      -1.227483	       0.991157	      -0.211127
O	       0.534459	      -0.388406	      -0.156566
O	      -0.967803	       2.086723	      -0.424849
O	       1.891566	      -0.822612	      -0.257628
H	      -0.671162	      -0.894437	       0.046987
H	      -2.430862	      -0.581898	      -0.749237
H	      -2.237887	      -0.281081	       1.042822
H	       2.199317	      -0.725807	       0.651895
9
TS 15  Energy    = -304.210670703906   Spin(**2) = 0.0  ZPVE      = 0.066897398338
C	      -1.782170	      -0.574436	      -0.131995
C	       0.405878	       0.080708	       0.361327
O	      -0.378451	      -0.661462	      -0.411677
O	       0.029227	       0.786814	       1.263000
O	       1.705260	      -0.119328	       0.037704
H	      -1.985606	      -0.899002	       0.889882
H	      -2.264323	      -1.239058	      -0.845658
H	      -2.133208	       0.450044	      -0.267459
H	       1.988395	       0.516328	      -0.630107
9
TS 16  Energy    = -304.000142112555   Spin(**2) = 0.0  ZPVE      = 0.057703031042
C	      -1.636025	      -0.416749	      -0.181135
C	      -0.994936	       0.770279	      -0.541350
O	       0.340733	       0.202627	       0.998391
O	      -0.788472	       1.839829	      -0.912378
O	       1.177080	      -0.868969	       0.539198
H	      -1.088402	      -1.282189	      -0.561667
H	      -2.707266	      -0.423964	      -0.372530
H	      -0.897655	      -0.321296	       0.878570
H	       1.914906	      -0.380782	       0.153291
9
TS 17  Energy    = -304.059492678563   Spin(**2) = 0.0  ZPVE      = 0.060642702381
C	      -2.366316	      -0.019824	      -0.611555
C	      -1.160090	       0.393389	      -0.898459
O	       0.669880	      -0.833630	       1.342764
O	      -0.082555	       0.770144	      -1.169064
O	       1.657640	       0.164784	       1.078554
H	      -2.525538	      -1.065028	      -0.382984
H	      -3.180767	       0.691951	      -0.595700
H	       1.055043	      -1.608432	       0.911303
H	       1.252666	       0.625431	       0.325530
9
TS 18  Energy    = -304.069795268518   Spin(**2) = 0.0  ZPVE      = 0.059962921872
C	      -1.800138	      -0.665161	      -0.250378
C	       0.147978	       0.901064	       0.793411
O	      -1.018004	       0.704688	       0.665137
O	       1.178060	       1.355604	       1.059910
O	       0.838787	      -1.081241	      -0.204082
H	      -2.503751	      -0.879167	       0.567271
H	      -0.153158	      -1.197709	      -0.396108
H	      -2.333479	       0.018648	      -0.927042
H	       1.228707	      -0.816116	      -1.043102
9
TS 19  Energy    = -304.164599023926   Spin(**2) = 0.0  ZPVE      = 0.063707082365
C	      -1.780170	      -0.570143	      -0.149276
C	       0.499375	      -0.106912	       0.021375
O	      -0.409124	      -0.903467	      -0.453746
O	       0.300430	       0.938438	       0.730111
O	       1.746448	      -0.282567	      -0.172379
H	      -1.933042	      -0.580837	       0.930027
H	      -2.376188	      -1.342253	      -0.628742
H	      -2.021888	       0.411416	      -0.557225
H	       1.559163	       0.776934	       0.544874
9
TS 20  Energy    = -304.00082462387   Spin(**2) = 0.0  ZPVE      = 0.062898772925
C	      -1.568026	      -0.343509	      -0.118846
C	      -0.198336	       0.122621	       0.330138
O	       0.594945	      -0.744795	       0.981753
O	      -0.099751	       1.254110	       0.929822
O	       0.734817	      -0.148531	      -0.844281
H	      -1.495028	      -1.324324	      -0.591011
H	      -1.984529	       0.376687	      -0.823905
H	      -2.217659	      -0.402938	       0.755575
H	       1.553529	       0.329463	      -0.618856
9
TS 21  Energy    = -303.991218767092   Spin(**2) = 0.0  ZPVE      = 0.058992275556
C	      -1.359262	      -0.458504	      -0.394886
C	       0.080190	       0.809849	       0.655312
O	       1.195467	       0.235915	       0.576804
O	      -0.488684	       1.737909	       1.060154
O	       1.288644	      -0.990918	      -0.107580
H	      -1.624026	      -1.356074	      -0.971089
H	      -1.604394	       0.406480	      -1.008887
H	      -1.943800	      -0.477189	       0.523491
H	      -0.224172	      -0.788683	      -0.332930
9
TS 22  Energy    = -304.207185332167   Spin(**2) = 0.0  ZPVE      = 0.06747778482
C	      -1.563975	      -0.609552	      -0.271999
C	       0.454495	       0.056349	       0.754644
O	      -0.260995	      -0.964051	       0.221834
O	       0.546923	       0.267618	       1.933582
O	       1.101234	       0.794349	      -0.149739
H	      -2.180872	      -0.216771	       0.540324
H	      -1.999850	      -1.529172	      -0.656545
H	      -1.493602	       0.127522	      -1.077437
H	       0.981643	       0.414316	      -1.029645
9
TS 23  Energy    = -304.206373740911   Spin(**2) = 0.0  ZPVE      = 0.066708079767
C	      -1.616680	      -0.533902	      -0.217697
C	       0.455315	       0.130868	       0.779622
O	      -0.729519	      -0.459756	       0.907708
O	       1.200741	       0.236735	       1.718312
O	       0.711669	       0.656890	      -0.446465
H	      -2.514504	      -1.019386	       0.159773
H	      -1.182855	      -1.135471	      -1.018430
H	      -1.854536	       0.463164	      -0.589072
H	       1.115371	       0.001467	      -1.028732
9
TS 24  Energy    = -304.063993194013   Spin(**2) = 0.0  ZPVE      = 0.060193559096
C	      -2.304272	      -0.436775	      -0.293282
C	       0.444999	       0.162351	       0.665970
O	      -0.290632	      -0.909951	       0.270707
O	       0.238665	       0.800805	       1.661783
O	       1.426583	       0.412921	      -0.186006
H	      -1.032649	      -1.042151	       0.906382
H	      -2.237390	      -1.019811	      -1.229874
H	      -2.076922	       0.596773	      -0.617284
H	       1.416620	      -0.223553	      -0.913378
9
TS 25  Energy    = -304.001252620026   Spin(**2) = 0.0  ZPVE      = 0.059731695363
C	      -1.869773	      -0.083661	       0.213550
C	      -0.461715	      -0.151248	       0.044335
O	      -0.128526	      -1.109602	      -0.736844
O	       0.400895	       0.695450	       0.563706
O	       1.702096	       0.546436	      -0.015572
H	      -2.247339	      -0.909088	       0.818476
H	      -1.344776	      -1.023917	      -0.869151
H	      -2.336027	       0.872909	       0.431994
H	       1.889896	       1.472441	      -0.234793
9
TS 26  Energy    = -304.128374799682   Spin(**2) = 0.0  ZPVE      = 0.065121630508
C	      -1.928794	      -0.424063	       0.077038
C	       0.427250	       0.025593	       0.144904
O	      -0.053846	      -0.586807	      -0.841992
O	      -0.295242	       0.392078	       1.100846
O	       1.734302	       0.308710	       0.198064
H	      -2.214974	      -0.542156	       1.111728
H	      -2.032231	      -1.310431	      -0.531248
H	      -2.199716	       0.511726	      -0.391188
H	       2.148255	      -0.034041	      -0.603134
9
TS 27  Energy    = -304.209283906378   Spin(**2) = 0.0  ZPVE      = 0.067764479235
C	      -1.792688	      -0.177060	       0.310571
C	       0.393831	      -0.184084	      -0.531110
O	       0.728314	      -1.069992	      -1.277385
O	      -0.810371	       0.417375	      -0.550597
O	       1.176618	       0.368432	       0.396057
H	      -1.480802	      -0.105479	       1.356254
H	      -1.955998	      -1.223210	       0.037185
H	      -2.709072	       0.390137	       0.160156
H	       2.035171	      -0.075510	       0.363887
9
TS 28  Energy    = -304.001284973653   Spin(**2) = 0.0  ZPVE      = 0.062341462679
C	      -1.728301	      -0.837049	       0.570700
C	      -0.651767	      -0.122845	       0.005133
O	       0.531229	      -0.433738	       0.471496
O	      -0.611969	       0.809820	      -0.915642
O	       1.618561	       0.323822	      -0.135766
H	      -2.245764	      -1.391323	      -0.219152
H	      -1.526973	       0.965743	      -1.192986
H	      -2.415237	      -0.131302	       1.049116
H	       2.350184	      -0.064344	       0.367489
9
TS 29  Energy    = -303.977971220695   Spin(**2) = 0.0  ZPVE      = 0.05923074684
C	      -1.864071	      -0.256632	       0.020482
C	      -0.501460	       0.279347	      -0.187529
O	       1.472456	      -0.759857	       0.198032
O	       0.029886	       1.166992	      -0.723482
O	       2.146386	       0.296073	      -0.225197
H	      -1.859811	      -1.320546	      -0.221970
H	      -2.578511	       0.289818	      -0.597789
H	      -2.110802	      -0.153436	       1.080000
H	       0.585890	      -0.422974	       0.657843
9
TS 30  Energy    = -303.988765555094   Spin(**2) = 0.0  ZPVE      = 0.060167817874
C	      -2.057082	       0.037109	       0.159086
C	      -0.870509	       0.380781	      -0.519928
O	      -0.004614	      -0.690117	      -0.374685
O	      -0.597600	       1.281276	      -1.282720
O	       1.618507	      -0.119039	       0.669710
H	       0.058848	      -1.038192	       0.534758
H	      -3.009424	       0.339395	      -0.261247
H	      -2.055020	      -0.579991	       1.048928
H	       2.236857	      -0.492437	       0.026486
9
TS 31  Energy    = -304.024799774204   Spin(**2) = 0.0  ZPVE      = 0.059184879289
C	      -1.109537	      -0.509032	      -0.190083
C	       0.099084	       0.234378	       0.453485
O	      -0.281112	      -1.476043	       0.288190
O	       0.076576	       0.761405	       1.551111
O	       1.091288	       0.461752	      -0.434360
H	      -2.238352	      -0.604646	       0.329104
H	      -1.429028	      -0.434496	      -1.230807
H	      -1.757204	       0.172535	       0.565934
H	       1.133287	      -0.265244	      -1.067556
9
TS 32  Energy    = -304.156275020033   Spin(**2) = 0.0  ZPVE      = 0.062710690655
C	      -1.569277	      -0.631813	      -0.206120
C	       0.554593	       0.584183	       0.484767
O	      -0.276544	      -0.112718	      -0.572662
O	       0.111887	       1.438003	       1.189485
O	       1.630440	      -0.051855	       0.274167
H	      -1.461297	      -1.445415	       0.513008
H	      -2.043394	      -0.982133	      -1.120201
H	      -2.136521	       0.192215	       0.226853
H	       0.775115	      -0.649858	      -0.524278
9
TS 33  Energy    = -304.216916702953   Spin(**2) = 0.0  ZPVE      = 0.064521195253
C	      -1.610216	      -0.973987	      -0.546010
C	       1.080889	       1.219911	       1.344179
O	      -0.568784	      -0.453531	      -1.348909
O	       0.930807	       2.322655	       1.679739
O	       1.234305	       0.112381	       1.011418
H	      -1.485832	      -2.045913	      -0.342067
H	      -2.544715	      -0.838797	      -1.095462
H	      -1.700696	      -0.449624	       0.414629
H	       0.249245	      -0.552487	      -0.852500
9
TS 34  Energy    = -304.031093805766   Spin(**2) = 0.0  ZPVE      = 0.064041670281
C	      -1.681399	      -0.373508	      -0.027317
C	      -0.434213	       0.394678	      -0.252949
O	       0.704192	      -0.351005	       0.378445
O	      -0.211125	       1.400160	      -0.826107
O	       1.866130	      -0.371079	      -0.524234
H	      -1.585832	      -1.345460	      -0.518854
H	      -2.529882	       0.175495	      -0.430589
H	      -1.812854	      -0.557133	       1.041844
H	       1.004946	       0.146637	       1.160149
9
TS 35  Energy    = -304.058178375157   Spin(**2) = 0.0  ZPVE      = 0.057209244431
C	      -1.676533	       0.197170	      -0.217444
C	       0.518244	       0.124327	       0.562252
O	      -0.366536	      -0.007173	      -0.493257
O	       0.219897	       0.112024	       1.718964
O	       1.750713	       0.223326	       0.099338
H	      -2.199986	      -0.951028	       0.570586
H	      -2.244653	      -1.590871	       0.086273
H	      -2.164195	       0.014904	      -1.193749
H	       1.748051	       0.217931	      -0.867946
9
TS 36  Energy    = -304.089598416904   Spin(**2) = 0.0  ZPVE      = 0.060321097925
C	      -0.856541	      -0.620887	       0.023169
C	       0.111583	       0.550468	       0.666644
O	      -0.204117	      -1.394174	      -0.835593
O	      -0.444349	       1.344822	       1.414026
O	       1.258563	       0.379390	       0.234000
H	      -1.488549	      -1.112032	       0.764804
H	      -1.999566	      -0.255191	      -0.599050
H	      -1.470373	       0.398630	      -0.515793
H	       0.678352	      -0.950418	      -0.887190
9
TS 37  Energy    = -304.059298447109   Spin(**2) = 0.0  ZPVE      = 0.057514304367
C	      -1.447604	      -1.187444	      -0.008113
C	       0.408590	       0.239938	       0.428738
O	      -0.200700	      -0.775000	      -0.306455
O	      -0.152483	       0.928376	       1.228715
O	       1.677652	       0.335032	       0.095405
H	      -1.739268	      -0.719013	       0.953998
H	      -2.411239	      -0.451014	      -0.914175
H	      -2.448647	       0.296553	      -0.637803
H	       1.898701	      -0.326819	      -0.575292
9
TS 38  Energy    = -304.110055542349   Spin(**2) = 0.0  ZPVE      = 0.063689836281
C	      -1.631533	      -0.136805	      -0.612485
C	       0.442590	      -0.573348	       0.912427
O	      -0.639077	      -1.209065	       0.999090
O	       1.549207	      -0.724186	       1.404603
O	       0.210559	       0.521826	       0.050505
H	      -2.349288	       0.016713	       0.178776
H	      -1.561124	      -1.125288	      -1.040465
H	      -1.454375	       0.697730	      -1.274663
H	       1.018043	       0.873032	      -0.352770
9
TS 39  Energy    = -304.059514717936   Spin(**2) = 0.0  ZPVE      = 0.060639273038
C	      -2.463336	       0.284112	       0.157878
C	      -1.294933	       0.857859	       0.043060
O	       0.937872	      -1.529050	       0.067204
O	      -0.253386	       1.387564	      -0.061153
O	       1.944729	      -0.516006	       0.118348
H	       0.923865	      -1.743175	      -0.875423
H	      -2.881671	      -0.240571	      -0.690616
H	      -2.986587	       0.334778	       1.103425
H	       1.393411	       0.283273	       0.137666
9
TS 40  Energy    = -304.074725827656   Spin(**2) = 0.0  ZPVE      = 0.059314374557
C	      -2.556172	      -0.467999	      -0.386999
C	       0.720333	       0.251211	       0.459043
O	       0.172254	      -0.703546	      -0.262647
O	       0.145899	       1.157793	       1.024255
O	       2.057279	       0.135097	       0.524966
H	      -0.852415	      -0.589589	      -0.292378
H	      -3.265772	      -1.088093	      -0.956733
H	      -3.162326	       0.286762	       0.137643
H	       2.325923	      -0.641026	       0.017869
9
TS 41  Energy    = -304.217370621238   Spin(**2) = 0.0  ZPVE      = 0.064222097453
C	      -1.580825	      -0.867708	      -0.053417
C	       1.061289	       1.288175	       0.703990
O	      -0.210175	      -1.070188	       0.261926
O	       0.090696	       1.795073	       1.102436
O	       2.062778	       0.838220	       0.313604
H	      -2.203007	      -1.529504	       0.558662
H	      -1.797824	      -1.072142	      -1.105848
H	      -1.861754	       0.168816	       0.161401
H	       0.254440	      -1.315491	      -0.540790
9
TS 42  Energy    = -304.08111612608   Spin(**2) = 0.0  ZPVE      = 0.06447910144
C	      -1.739791	      -0.485436	      -0.136601
C	       0.223113	      -0.026547	       0.218534
O	      -0.666505	       0.602049	      -0.460449
O	       0.230886	      -0.226253	       1.516183
O	       1.384361	      -0.273873	      -0.322992
H	      -2.627193	       0.106011	       0.107415
H	      -0.720521	      -0.398539	       1.692621
H	      -1.870451	      -0.976756	      -1.103616
H	       1.371103	       0.019953	      -1.246076
9
TS 43  Energy    = -304.066006266892   Spin(**2) = 0.0  ZPVE      = 0.060878983249
C	      -2.300141	      -0.850496	       0.101135
C	       0.363972	       0.423918	       0.279438
O	      -0.556299	       0.143513	      -0.667352
O	       0.194391	       1.179802	       1.202388
O	       1.463399	      -0.264529	       0.008413
H	      -1.777592	      -1.354480	       0.935885
H	      -2.299134	      -1.608767	      -0.702474
H	      -1.393199	       0.619494	      -0.440978
H	       2.120222	      -0.053205	       0.685509
9
TS 44  Energy    = -304.06748724473   Spin(**2) = 0.0  ZPVE      = 0.060116460593
C	      -0.990967	      -0.581510	       0.086856
C	       0.068262	       0.423516	       0.628277
O	      -0.501704	      -1.386908	      -0.872322
O	      -0.149952	       1.265905	       1.463064
O	       1.219951	       0.182257	       0.042455
H	      -1.640648	      -0.990046	       0.873844
H	      -1.544828	      -0.309316	      -0.999165
H	      -1.867236	       0.292740	      -0.365140
H	       0.992124	      -0.556030	      -0.592851
9
TS 45  Energy    = -304.02821088781   Spin(**2) = 0.0  ZPVE      = 0.059112270121
C	      -1.324383	      -0.262298	      -0.168521
C	       0.010584	       0.321081	       0.345071
O	      -0.607670	       0.009437	      -1.286046
O	       0.129206	       1.475338	       0.701690
O	       0.928063	      -0.658174	       0.554594
H	      -1.074057	      -1.222964	       0.512253
H	      -1.732219	      -1.433705	      -0.168508
H	      -2.262626	       0.224221	       0.100871
H	       1.748719	      -0.217685	       0.810561
9
TS 46  Energy    = -304.224007917061   Spin(**2) = 0.0  ZPVE      = 0.068287675134
C	      -1.786929	      -0.656575	      -0.037586
C	       0.408226	       0.142396	       0.294573
O	      -0.369665	      -0.871016	      -0.063245
O	       0.054564	       1.246085	       0.645169
O	       1.677626	      -0.259796	       0.203861
H	      -2.219632	      -1.382142	       0.651571
H	      -2.166353	      -0.827753	      -1.045227
H	      -2.014165	       0.357837	       0.286676
H	       2.231946	       0.486216	       0.466172
9
TS 47  Energy    = -304.07326971715   Spin(**2) = 0.0  ZPVE      = 0.061674304157
C	      -1.521033	      -0.121048	      -0.276977
C	       0.224064	      -0.215105	       0.667202
O	      -0.767168	       0.941440	      -0.430226
O	       0.228768	       0.010739	       1.837217
O	       1.228608	      -0.386365	      -0.185413
H	      -2.254519	      -0.148593	       0.542781
H	      -0.711171	      -1.055742	       0.295278
H	      -1.812070	      -0.710736	      -1.160363
H	       0.969522	       0.026020	      -1.024481
9
TS 48  Energy    = -304.085856121766   Spin(**2) = 0.0  ZPVE      = 0.064453516624
C	      -1.823492	      -1.114118	      -0.487416
C	       0.264433	       0.052435	       0.249521
O	      -0.351090	      -0.609397	      -0.610610
O	      -0.261999	       0.615518	       1.297448
O	       1.556416	       0.229745	       0.168851
H	      -1.231407	       0.531852	       1.246885
H	      -2.238301	      -0.593031	      -1.365076
H	      -2.227326	      -0.545958	       0.379262
H	       1.897767	      -0.226438	      -0.613847
9
TS 49  Energy    = -304.056963328282   Spin(**2) = 0.0  ZPVE      = 0.060501481394
C	      -2.246872	      -0.507126	      -0.088453
C	       0.434459	       0.274406	       0.342074
O	      -0.378859	      -0.776231	      -0.029911
O	       0.178812	       0.987902	       1.266007
O	       1.530798	       0.373712	      -0.391565
H	      -2.485669	      -1.345365	       0.584404
H	      -0.783945	      -0.705272	      -0.942817
H	      -2.267497	       0.387530	       0.554261
H	       1.603775	      -0.348948	      -1.028983
9
TS 50  Energy    = -304.02584564124   Spin(**2) = 0.0  ZPVE      = 0.059479519402
C	      -1.466990	      -0.150096	      -0.072086
C	       0.099101	      -0.513989	       0.011921
O	       0.514194	      -1.663233	      -0.129868
O	      -0.581283	      -0.119957	       1.307736
O	       0.821697	       0.582295	      -0.399862
H	      -1.791704	       0.211134	       1.026471
H	      -2.071199	      -1.037557	      -0.206112
H	      -1.594909	       0.812803	      -0.555059
H	       1.656094	       0.219209	      -0.718122
9
TS 51  Energy    = -304.086868209192   Spin(**2) = 0.0  ZPVE      = 0.06257186926
C	      -1.582251	      -1.266445	      -0.026144
C	       0.181714	       0.283926	       0.024254
O	      -0.129243	      -0.946604	      -0.179295
O	      -0.709465	       1.130927	       0.331262
O	       1.412114	       0.673021	      -0.082985
H	      -1.868298	      -1.144746	       1.017726
H	      -2.143649	      -0.772805	      -0.818270
H	      -1.552088	       0.462136	       0.321565
H	       1.976170	      -0.078800	      -0.323096
9
TS 52  Energy    = -304.032732338829   Spin(**2) = 0.0  ZPVE      = 0.059504905893
C	      -1.883700	      -0.781850	       0.546646
C	       0.369689	       0.432932	       0.182311
O	      -0.364959	      -0.655163	      -0.211522
O	      -0.085366	       1.413672	       0.697502
O	       1.649823	       0.248524	      -0.090555
H	      -2.282139	      -1.552736	      -0.118283
H	      -1.354398	      -0.386220	      -0.683377
H	      -2.256916	       0.241353	       0.433848
H	       1.792968	      -0.619904	      -0.491552
9
TS 53  Energy    = -304.057415856651   Spin(**2) = 0.0  ZPVE      = 0.062863927281
C	      -1.951654	      -0.837464	       0.656517
C	       0.350137	       0.466694	       0.311039
O	      -0.542685	      -0.431868	      -0.301649
O	      -0.007467	       1.350386	       1.020656
O	       1.600444	       0.180645	       0.015355
H	      -2.268433	      -1.615810	      -0.064342
H	      -0.712766	      -0.180411	      -1.224726
H	      -2.546236	       0.044547	       0.350630
H	       1.663663	      -0.636109	      -0.498461
9
TS 54  Energy    = -304.058513812952   Spin(**2) = 0.0  ZPVE      = 0.059836264932
C	      -1.105051	      -0.245112	      -0.309282
C	       0.084820	       0.110863	       0.611301
O	      -0.946820	      -1.113614	      -1.295926
O	      -0.040305	       0.410617	       1.774478
O	       1.223795	       0.083804	      -0.064028
H	      -1.883048	      -0.735182	       0.683290
H	      -1.730188	      -1.297309	      -0.063268
H	      -1.723273	       0.659927	      -0.467348
H	       1.935689	       0.361257	       0.532747
9
TS 55  Energy    = -304.214622628865   Spin(**2) = 0.0  ZPVE      = 0.067651720728
C	      -1.012132	      -0.455333	       0.053974
C	       0.073212	       0.396780	       0.691611
O	      -0.447721	      -1.123984	      -1.050568
O	      -0.124016	       1.088096	       1.663245
O	       1.265149	       0.328151	       0.101992
H	      -1.384709	      -1.146190	       0.819539
H	      -1.109942	      -1.674831	      -1.475929
H	      -1.833703	       0.212050	      -0.231882
H	       1.185633	      -0.283574	      -0.651542
9