Generated by Multiwfn                                                   
SP        RwB97XD TD-FC                                               def2TZVP            
Number of atoms                            I                9
Info1-9                                    I   N=           9
          19          18           0           0           0         111
           1         218        -801
Full Title                                 C   N=           2
Generated by Multiwfn   
Route                                      C   N=           7
#p TD(nstates=40,50-50) wb97xd/Def2TZVP scrf=(smd,solvent=wa
ter) IOp(9/40=4)        
Charge                                     I                0
Multiplicity                               I                1
Number of electrons                        I               40
Number of alpha electrons                  I               20
Number of beta electrons                   I               20
Number of basis functions                  I              179
Number of independent functions            I              179
Number of point charges in /Mol/           I                0
Number of translation vectors              I                0
Atomic numbers                             I   N=           9
           6           6           8           8           8           1
           1           1           1
Nuclear charges                            R   N=           9
  6.00000000E+00  6.00000000E+00  8.00000000E+00  8.00000000E+00  8.00000000E+00
  1.00000000E+00  1.00000000E+00  1.00000000E+00  1.00000000E+00
Current cartesian coordinates              R   N=          27
  3.36797728E+00 -8.07303286E-01  1.01098650E-02  7.79851345E-01  3.20552692E-01
 -2.18256788E-02 -1.00989819E+00 -1.46774265E+00 -2.91624497E-02  2.56013952E-01
  2.51906093E+00 -5.39286875E-03 -3.46056917E+00 -4.58965653E-01  2.34973353E-02
  3.33754344E+00 -2.75675177E+00 -5.97969488E-01  4.07339453E+00 -7.06519057E-01
  1.93290069E+00  4.58452938E+00  3.06811324E-01 -1.19703920E+00 -3.16681188E+00
  1.33814200E+00  2.08667458E-02
Number of symbols in /Mol/                 I                0
Force Field                                I                0
Atom Types                                 C   N=           9
                                                            
                                                
Int Atom Types                             I   N=           9
           0           0           0           0           0           0
           0           0           0
MM charges                                 R   N=           9
  0.00000000E+00  0.00000000E+00  0.00000000E+00  0.00000000E+00  0.00000000E+00
  0.00000000E+00  0.00000000E+00  0.00000000E+00  0.00000000E+00
Integer atomic weights                     I   N=           9
          12          12          16          16          16           1
           1           1           1
Real atomic weights                        R   N=           9
  1.20000000E+01  1.20000000E+01  1.59949146E+01  1.59949146E+01  1.59949146E+01
  1.00782504E+00  1.00782504E+00  1.00782504E+00  1.00782504E+00
Atom fragment info                         I   N=           9
           0           0           0           0           0           0
           0           0           0
Atom residue num                           I   N=           9
           0           0           0           0           0           0
           0           0           0
Nuclear spins                              I   N=           9
           0           0           0           0           0           1
           1           1           1
Nuclear ZEff                               R   N=           9
 -3.60000000E+00 -3.60000000E+00 -5.60000000E+00 -5.60000000E+00 -5.60000000E+00
 -1.00000000E+00 -1.00000000E+00 -1.00000000E+00 -1.00000000E+00
Nuclear ZNuc                               R   N=           9
  6.00000000E+00  6.00000000E+00  8.00000000E+00  8.00000000E+00  8.00000000E+00
  1.00000000E+00  1.00000000E+00  1.00000000E+00  1.00000000E+00
Nuclear QMom                               R   N=           9
  0.00000000E+00  0.00000000E+00  0.00000000E+00  0.00000000E+00  0.00000000E+00
  0.00000000E+00  0.00000000E+00  0.00000000E+00  0.00000000E+00
Nuclear GFac                               R   N=           9
  0.00000000E+00  0.00000000E+00  0.00000000E+00  0.00000000E+00  0.00000000E+00
  2.79284600E+00  2.79284600E+00  2.79284600E+00  2.79284600E+00
MicOpt                                     I   N=           9
          -1          -1          -1          -1          -1          -1
          -1          -1          -1
Number of residues                         I                0
Number of secondary structures             I                0
SymInf integers                            I   N=          26
           1           1           1           1           1           0
           0           0           0           0           0           0
           0           0           0           0           0           0
           0           0           0           0           0           0
           0           0
RotTr to input orientation                 R   N=          12
  9.99996643E-01  2.14609624E-03 -1.45184746E-03 -2.14947618E-03  9.99994974E-01
 -2.33048902E-03  1.44683871E-03  2.33360191E-03  9.99996230E-01  1.28957745E-02
  3.76239747E-03  2.13680782E-04
Number of contracted shells                I               71
Number of primitive shells                 I              124
Pure/Cartesian d shells                    I                0
Pure/Cartesian f shells                    I                0
Highest angular momentum                   I                3
Largest degree of contraction              I                6
Shell types                                I   N=          71
           0           0           0           0           0           1
           1           1          -2          -2          -3           0
           0           0           0           0           1           1
           1          -2          -2          -3           0           0
           0           0           0           1           1           1
          -2          -2          -3           0           0           0
           0           0           1           1           1          -2
          -2          -3           0           0           0           0
           0           1           1           1          -2          -2
          -3           0           0           0           1           0
           0           0           1           0           0           0
           1           0           0           0           1
Number of primitives per shell             I   N=          71
           6           2           1           1           1           4
           1           1           1           1           1           6
           2           1           1           1           4           1
           1           1           1           1           6           2
           1           1           1           4           1           1
           1           1           1           6           2           1
           1           1           4           1           1           1
           1           1           6           2           1           1
           1           4           1           1           1           1
           1           3           1           1           1           3
           1           1           1           3           1           1
           1           3           1           1           1
Shell to atom map                          I   N=          71
           1           1           1           1           1           1
           1           1           1           1           1           2
           2           2           2           2           2           2
           2           2           2           2           3           3
           3           3           3           3           3           3
           3           3           3           4           4           4
           4           4           4           4           4           4
           4           4           5           5           5           5
           5           5           5           5           5           5
           5           6           6           6           6           7
           7           7           7           8           8           8
           8           9           9           9           9
Primitive exponents                        R   N=         124
  1.35753497E+04  2.03523337E+03  4.63225624E+02  1.31200196E+02  4.28530159E+01
  1.55841858E+01  6.20671385E+00  2.57648965E+00  5.76963394E-01  2.29728314E-01
  9.51644400E-02  3.46972322E+01  7.95826228E+00  2.37808269E+00  8.14332082E-01
  2.88875473E-01  1.00568237E-01  1.09700000E+00  3.18000000E-01  7.61000000E-01
  1.35753497E+04  2.03523337E+03  4.63225624E+02  1.31200196E+02  4.28530159E+01
  1.55841858E+01  6.20671385E+00  2.57648965E+00  5.76963394E-01  2.29728314E-01
  9.51644400E-02  3.46972322E+01  7.95826228E+00  2.37808269E+00  8.14332082E-01
  2.88875473E-01  1.00568237E-01  1.09700000E+00  3.18000000E-01  7.61000000E-01
  2.70323826E+04  4.05238714E+03  9.22327227E+02  2.61240710E+02  8.53546414E+01
  3.10350352E+01  1.22608607E+01  4.99870760E+00  1.17031082E+00  4.64747410E-01
  1.85045364E-01  6.32749548E+01  1.46270494E+01  4.45012235E+00  1.52757996E+00
  5.29351179E-01  1.74784213E-01  2.31400000E+00  6.45000000E-01  1.42800000E+00
  2.70323826E+04  4.05238714E+03  9.22327227E+02  2.61240710E+02  8.53546414E+01
  3.10350352E+01  1.22608607E+01  4.99870760E+00  1.17031082E+00  4.64747410E-01
  1.85045364E-01  6.32749548E+01  1.46270494E+01  4.45012235E+00  1.52757996E+00
  5.29351179E-01  1.74784213E-01  2.31400000E+00  6.45000000E-01  1.42800000E+00
  2.70323826E+04  4.05238714E+03  9.22327227E+02  2.61240710E+02  8.53546414E+01
  3.10350352E+01  1.22608607E+01  4.99870760E+00  1.17031082E+00  4.64747410E-01
  1.85045364E-01  6.32749548E+01  1.46270494E+01  4.45012235E+00  1.52757996E+00
  5.29351179E-01  1.74784213E-01  2.31400000E+00  6.45000000E-01  1.42800000E+00
  3.40613410E+01  5.12357460E+00  1.16466260E+00  3.27230410E-01  1.03072410E-01
  8.00000000E-01  3.40613410E+01  5.12357460E+00  1.16466260E+00  3.27230410E-01
  1.03072410E-01  8.00000000E-01  3.40613410E+01  5.12357460E+00  1.16466260E+00
  3.27230410E-01  1.03072410E-01  8.00000000E-01  3.40613410E+01  5.12357460E+00
  1.16466260E+00  3.27230410E-01  1.03072410E-01  8.00000000E-01
Contraction coefficients                   R   N=         124
  6.06455036E-04  4.69790889E-03  2.43324776E-02  9.73999683E-02  3.01955843E-01
  6.62336091E-01  6.55953085E-01  3.75856333E-01  1.00000000E+00  1.00000000E+00
  1.00000000E+00  1.13272200E-02  7.61696592E-02  3.01922522E-01  7.27850273E-01
  1.00000000E+00  1.00000000E+00  1.00000000E+00  1.00000000E+00  1.00000000E+00
  6.06455036E-04  4.69790889E-03  2.43324776E-02  9.73999683E-02  3.01955843E-01
  6.62336091E-01  6.55953085E-01  3.75856333E-01  1.00000000E+00  1.00000000E+00
  1.00000000E+00  1.13272200E-02  7.61696592E-02  3.01922522E-01  7.27850273E-01
  1.00000000E+00  1.00000000E+00  1.00000000E+00  1.00000000E+00  1.00000000E+00
  5.72273352E-04  4.43532335E-03  2.30201077E-02  9.28224907E-02  2.93785000E-01
  6.74016045E-01  6.38399370E-01  3.95345871E-01  1.00000000E+00  1.00000000E+00
  1.00000000E+00  1.20183322E-02  8.30054218E-02  3.19917439E-01  7.07155429E-01
  1.00000000E+00  1.00000000E+00  1.00000000E+00  1.00000000E+00  1.00000000E+00
  5.72273352E-04  4.43532335E-03  2.30201077E-02  9.28224907E-02  2.93785000E-01
  6.74016045E-01  6.38399370E-01  3.95345871E-01  1.00000000E+00  1.00000000E+00
  1.00000000E+00  1.20183322E-02  8.30054218E-02  3.19917439E-01  7.07155429E-01
  1.00000000E+00  1.00000000E+00  1.00000000E+00  1.00000000E+00  1.00000000E+00
  5.72273352E-04  4.43532335E-03  2.30201077E-02  9.28224907E-02  2.93785000E-01
  6.74016045E-01  6.38399370E-01  3.95345871E-01  1.00000000E+00  1.00000000E+00
  1.00000000E+00  1.20183322E-02  8.30054218E-02  3.19917439E-01  7.07155429E-01
  1.00000000E+00  1.00000000E+00  1.00000000E+00  1.00000000E+00  1.00000000E+00
  2.54393072E-02  1.90085949E-01  8.52441130E-01  1.00000000E+00  1.00000000E+00
  1.00000000E+00  2.54393072E-02  1.90085949E-01  8.52441130E-01  1.00000000E+00
  1.00000000E+00  1.00000000E+00  2.54393072E-02  1.90085949E-01  8.52441130E-01
  1.00000000E+00  1.00000000E+00  1.00000000E+00  2.54393072E-02  1.90085949E-01
  8.52441130E-01  1.00000000E+00  1.00000000E+00  1.00000000E+00
Coordinates of each shell                  R   N=         213
  3.36797728E+00 -8.07303286E-01  1.01098650E-02  3.36797728E+00 -8.07303286E-01
  1.01098650E-02  3.36797728E+00 -8.07303286E-01  1.01098650E-02  3.36797728E+00
 -8.07303286E-01  1.01098650E-02  3.36797728E+00 -8.07303286E-01  1.01098650E-02
  3.36797728E+00 -8.07303286E-01  1.01098650E-02  3.36797728E+00 -8.07303286E-01
  1.01098650E-02  3.36797728E+00 -8.07303286E-01  1.01098650E-02  3.36797728E+00
 -8.07303286E-01  1.01098650E-02  3.36797728E+00 -8.07303286E-01  1.01098650E-02
  3.36797728E+00 -8.07303286E-01  1.01098650E-02  7.79851345E-01  3.20552692E-01
 -2.18256788E-02  7.79851345E-01  3.20552692E-01 -2.18256788E-02  7.79851345E-01
  3.20552692E-01 -2.18256788E-02  7.79851345E-01  3.20552692E-01 -2.18256788E-02
  7.79851345E-01  3.20552692E-01 -2.18256788E-02  7.79851345E-01  3.20552692E-01
 -2.18256788E-02  7.79851345E-01  3.20552692E-01 -2.18256788E-02  7.79851345E-01
  3.20552692E-01 -2.18256788E-02  7.79851345E-01  3.20552692E-01 -2.18256788E-02
  7.79851345E-01  3.20552692E-01 -2.18256788E-02  7.79851345E-01  3.20552692E-01
 -2.18256788E-02 -1.00989819E+00 -1.46774265E+00 -2.91624497E-02 -1.00989819E+00
 -1.46774265E+00 -2.91624497E-02 -1.00989819E+00 -1.46774265E+00 -2.91624497E-02
 -1.00989819E+00 -1.46774265E+00 -2.91624497E-02 -1.00989819E+00 -1.46774265E+00
 -2.91624497E-02 -1.00989819E+00 -1.46774265E+00 -2.91624497E-02 -1.00989819E+00
 -1.46774265E+00 -2.91624497E-02 -1.00989819E+00 -1.46774265E+00 -2.91624497E-02
 -1.00989819E+00 -1.46774265E+00 -2.91624497E-02 -1.00989819E+00 -1.46774265E+00
 -2.91624497E-02 -1.00989819E+00 -1.46774265E+00 -2.91624497E-02  2.56013952E-01
  2.51906093E+00 -5.39286875E-03  2.56013952E-01  2.51906093E+00 -5.39286875E-03
  2.56013952E-01  2.51906093E+00 -5.39286875E-03  2.56013952E-01  2.51906093E+00
 -5.39286875E-03  2.56013952E-01  2.51906093E+00 -5.39286875E-03  2.56013952E-01
  2.51906093E+00 -5.39286875E-03  2.56013952E-01  2.51906093E+00 -5.39286875E-03
  2.56013952E-01  2.51906093E+00 -5.39286875E-03  2.56013952E-01  2.51906093E+00
 -5.39286875E-03  2.56013952E-01  2.51906093E+00 -5.39286875E-03  2.56013952E-01
  2.51906093E+00 -5.39286875E-03 -3.46056917E+00 -4.58965653E-01  2.34973353E-02
 -3.46056917E+00 -4.58965653E-01  2.34973353E-02 -3.46056917E+00 -4.58965653E-01
  2.34973353E-02 -3.46056917E+00 -4.58965653E-01  2.34973353E-02 -3.46056917E+00
 -4.58965653E-01  2.34973353E-02 -3.46056917E+00 -4.58965653E-01  2.34973353E-02
 -3.46056917E+00 -4.58965653E-01  2.34973353E-02 -3.46056917E+00 -4.58965653E-01
  2.34973353E-02 -3.46056917E+00 -4.58965653E-01  2.34973353E-02 -3.46056917E+00
 -4.58965653E-01  2.34973353E-02 -3.46056917E+00 -4.58965653E-01  2.34973353E-02
  3.33754344E+00 -2.75675177E+00 -5.97969488E-01  3.33754344E+00 -2.75675177E+00
 -5.97969488E-01  3.33754344E+00 -2.75675177E+00 -5.97969488E-01  3.33754344E+00
 -2.75675177E+00 -5.97969488E-01  4.07339453E+00 -7.06519057E-01  1.93290069E+00
  4.07339453E+00 -7.06519057E-01  1.93290069E+00  4.07339453E+00 -7.06519057E-01
  1.93290069E+00  4.07339453E+00 -7.06519057E-01  1.93290069E+00  4.58452938E+00
  3.06811324E-01 -1.19703920E+00  4.58452938E+00  3.06811324E-01 -1.19703920E+00
  4.58452938E+00  3.06811324E-01 -1.19703920E+00  4.58452938E+00  3.06811324E-01
 -1.19703920E+00 -3.16681188E+00  1.33814200E+00  2.08667458E-02 -3.16681188E+00
  1.33814200E+00  2.08667458E-02 -3.16681188E+00  1.33814200E+00  2.08667458E-02
 -3.16681188E+00  1.33814200E+00  2.08667458E-02
Num ILSW                                   I              100
ILSW                                       I   N=         100
           0           0           0           0           2           0
           0           0           0           0        4639          -1
           5           0           0           0           0           0
           0           0           0           0           0           0
           1           0           0           0           0           0
           0           0      100000           0          -1           0
           0           0           0           0           0           0
           0           0           0           1           0           0
           0 -2000000000           1           0           0           0
           0           0         121          52           0           0
           0           0          58           0           0           0
           0           0           0           9           0           1
           0           0           0           0           0           0
           0           0           0           0           0           0
           0           0           0           0           0           0
           0           0           0           0           0           0
           0           0           0           0
Num RLSW                                   I               52
RLSW                                       R   N=          52
  1.00000000E+00  1.00000000E+00  1.00000000E+00  1.00000000E+00  1.00000000E+00
  0.00000000E+00  2.00000000E-01  2.22036000E-01  0.00000000E+00  7.77964000E-01
  0.00000000E+00  2.00000000E-01  0.00000000E+00  0.00000000E+00  1.00000000E+00
  0.00000000E+00  0.00000000E+00  1.00000000E+00  0.00000000E+00  0.00000000E+00
  0.00000000E+00  0.00000000E+00  1.00000000E+00  0.00000000E+00  0.00000000E+00
  0.00000000E+00  0.00000000E+00  1.00000000E+00  0.00000000E+00  0.00000000E+00
  0.00000000E+00  0.00000000E+00  1.00000000E+00  0.00000000E+00  0.00000000E+00
  0.00000000E+00  0.00000000E+00  0.00000000E+00  1.00000000E+00  1.00000000E+00
  0.00000000E+00  1.00000000E+00  0.00000000E+00  0.00000000E+00  0.00000000E+00
  0.00000000E+00  0.00000000E+00  0.00000000E+00  0.00000000E+00  0.00000000E+00
  0.00000000E+00  0.00000000E+00
ECP-MxAtEC                                 I           250000
ECP-MaxLECP                                I               10
ECP-MaxAtL                                 I          2250000
ECP-MxTECP                                 I         11250000
ECP-LenNCZ                                 I                0
ECP-KFirst                                 I   N=          90
           0           0           0           0           0           0
           0           0           0           0           0           0
           0           0           0           0           0           0
           0           0           0           0           0           0
           0           0           0           0           0           0
           0           0           0           0           0           0
           0           0           0           0           0           0
           0           0           0           0           0           0
           0           0           0           0           0           0
           0           0           0           0           0           0
           0           0           0           0           0           0
           0           0           0           0           0           0
           0           0           0           0           0           0
           0           0           0           0           0           0
           0           0           0           0           0           0
ECP-KLast                                  I   N=          90
           0           0           0           0           0           0
           0           0           0           0           0           0
           0           0           0           0           0           0
           0           0           0           0           0           0
           0           0           0           0           0           0
           0           0           0           0           0           0
           0           0           0           0           0           0
           0           0           0           0           0           0
           0           0           0           0           0           0
           0           0           0           0           0           0
           0           0           0           0           0           0
           0           0           0           0           0           0
           0           0           0           0           0           0
           0           0           0           0           0           0
           0           0           0           0           0           0
ECP-LMax                                   I   N=           9
           0           0           0           0           0           0
           0           0           0
ECP-LPSkip                                 I   N=           9
           1           1           1           1           1           1
           1           1           1
ECP-RNFroz                                 R   N=           9
  0.00000000E+00  0.00000000E+00  0.00000000E+00  0.00000000E+00  0.00000000E+00
  0.00000000E+00  0.00000000E+00  0.00000000E+00  0.00000000E+00
ECP-NLP                                    I                0
ECP-CLP1                                   R      0.000000000000000E+00
ECP-CLP2                                   R      0.000000000000000E+00
ECP-ZLP                                    R      0.000000000000000E+00
MxBond                                     I                4
NBond                                      I   N=           9
           4           3           2           1           2           1
           1           1           1
IBond                                      I   N=          36
           2           6           7           8           1           3
           4           0           2           5           0           0
           2           0           0           0           3           9
           0           0           1           0           0           0
           1           0           0           0           1           0
           0           0           5           0           0           0
RBond                                      R   N=          36
  1.00000000E+00  1.00000000E+00  1.00000000E+00  1.00000000E+00  1.00000000E+00
  1.50000000E+00  2.00000000E+00  0.00000000E+00  1.50000000E+00  1.00000000E+00
  0.00000000E+00  0.00000000E+00  2.00000000E+00  0.00000000E+00  0.00000000E+00
  0.00000000E+00  1.00000000E+00  1.00000000E+00  0.00000000E+00  0.00000000E+00
  1.00000000E+00  0.00000000E+00  0.00000000E+00  0.00000000E+00  1.00000000E+00
  0.00000000E+00  0.00000000E+00  0.00000000E+00  1.00000000E+00  0.00000000E+00
  0.00000000E+00  0.00000000E+00  1.00000000E+00  0.00000000E+00  0.00000000E+00
  0.00000000E+00
Virial Ratio                               R      2.003700125952917E+00
SCF Energy                                 R     -3.042531909533401E+02
CIS Energy                                 R     -3.040598601270332E+02
Total Energy                               R     -3.040598601270332E+02
Post-SCF wavefunction norm                 R      1.000000000000000E+00
RMS Density                                R      5.266295200460374E-09
Job Status                                 I                1
Nuclear derivative order                   I                0
PCM-NSphere                                I                9
PCM-NGenSphere                             I                9
PCM-NOrd                                   I   N=           9
           1           2           3           4           5           6
           7           8           9
PCM-SphereRadii                            R   N=           9
  3.49599333E+00  3.49599333E+00  2.87238371E+00  2.87238371E+00  2.87238371E+00
  2.26767135E+00  2.26767135E+00  2.26767135E+00  2.26767135E+00
PCM-SphereLoc                              R   N=          27
  3.36797728E+00 -8.07303286E-01  1.01098650E-02  7.79851345E-01  3.20552692E-01
 -2.18256788E-02 -1.00989819E+00 -1.46774265E+00 -2.91624497E-02  2.56013952E-01
  2.51906093E+00 -5.39286875E-03 -3.46056917E+00 -4.58965653E-01  2.34973353E-02
  3.33754344E+00 -2.75675177E+00 -5.97969488E-01  4.07339453E+00 -7.06519057E-01
  1.93290069E+00  4.58452938E+00  3.06811324E-01 -1.19703920E+00 -3.16681188E+00
  1.33814200E+00  2.08667458E-02
External E-field                           R   N=          35
  0.00000000E+00  0.00000000E+00  0.00000000E+00  0.00000000E+00  0.00000000E+00
  0.00000000E+00  0.00000000E+00  0.00000000E+00  0.00000000E+00  0.00000000E+00
  0.00000000E+00  0.00000000E+00  0.00000000E+00  0.00000000E+00  0.00000000E+00
  0.00000000E+00  0.00000000E+00  0.00000000E+00  0.00000000E+00  0.00000000E+00
  0.00000000E+00  0.00000000E+00  0.00000000E+00  0.00000000E+00  0.00000000E+00
  0.00000000E+00  0.00000000E+00  0.00000000E+00  0.00000000E+00  0.00000000E+00
  0.00000000E+00  0.00000000E+00  0.00000000E+00  0.00000000E+00  0.00000000E+00
IOpCl                                      I                0
IROHF                                      I                0
Alpha Orbital Energies                     R   N=         179
 -1.93635528E+01 -1.93258414E+01 -1.92608804E+01 -1.04348460E+01 -1.02895390E+01
 -1.30251494E+00 -1.17501854E+00 -1.05172725E+00 -8.52517204E-01 -7.35236794E-01
 -6.16752365E-01 -6.03876711E-01 -5.98722439E-01 -5.21499574E-01 -5.12143329E-01
 -5.03902907E-01 -4.86794673E-01 -4.59986661E-01 -3.98690424E-01 -3.79168959E-01
  7.26081602E-02  9.42692503E-02  1.34058149E-01  1.85871036E-01  2.01683996E-01
  2.11538576E-01  2.25861302E-01  2.59796968E-01  2.77042895E-01  3.04772932E-01
  3.20835290E-01  3.34600210E-01  3.97026565E-01  4.37368001E-01  4.41179310E-01
  4.72852621E-01  4.86800895E-01  4.88548244E-01  5.21289692E-01  5.30578169E-01
  5.38741763E-01  5.46443823E-01  5.78809091E-01  5.88512739E-01  6.08984262E-01
  6.28705183E-01  6.70157676E-01  6.80070729E-01  7.04067100E-01  7.15329382E-01
  7.68109873E-01  8.55859792E-01  8.62358546E-01  8.90713355E-01  9.43196371E-01
  9.58196317E-01  9.85900916E-01  1.01531600E+00  1.05504310E+00  1.11486003E+00
  1.14027671E+00  1.23495309E+00  1.32848199E+00  1.40644573E+00  1.41107277E+00
  1.45821551E+00  1.47929346E+00  1.54451675E+00  1.59979091E+00  1.60540844E+00
  1.62014357E+00  1.64819892E+00  1.66219156E+00  1.69056613E+00  1.71939543E+00
  1.78785508E+00  1.86289679E+00  1.90057040E+00  1.90385371E+00  1.98309156E+00
  2.00956412E+00  2.01843484E+00  2.05810858E+00  2.10225165E+00  2.16098506E+00
  2.17528710E+00  2.20282191E+00  2.24531753E+00  2.27971447E+00  2.29851544E+00
  2.35197167E+00  2.36644126E+00  2.40738746E+00  2.46656379E+00  2.48037765E+00
  2.57023464E+00  2.58587237E+00  2.64136673E+00  2.64671515E+00  2.66176185E+00
  2.71158169E+00  2.79525837E+00  2.81245408E+00  2.85180098E+00  2.88167571E+00
  2.93964589E+00  2.94558833E+00  2.99155989E+00  2.99457768E+00  3.03822685E+00
  3.08864392E+00  3.12090148E+00  3.17699735E+00  3.18409232E+00  3.20580707E+00
  3.28100124E+00  3.29126419E+00  3.35763318E+00  3.39401201E+00  3.41650141E+00
  3.47474106E+00  3.49339667E+00  3.58590910E+00  3.61187775E+00  3.72262827E+00
  3.85856419E+00  3.91188895E+00  3.95105623E+00  3.96946886E+00  4.06320441E+00
  4.09636171E+00  4.29610695E+00  4.40282772E+00  4.45861583E+00  4.52751044E+00
  4.58170656E+00  4.63162479E+00  4.77752065E+00  4.82242086E+00  4.91113511E+00
  4.97833042E+00  5.15684573E+00  5.22178416E+00  5.23692036E+00  5.38722167E+00
  5.39262055E+00  5.49112785E+00  5.56615121E+00  5.58117071E+00  5.73133640E+00
  5.95404951E+00  5.96816165E+00  6.04296690E+00  6.16762474E+00  6.21476783E+00
  6.27580753E+00  6.33336628E+00  6.43351275E+00  6.45061289E+00  6.45769297E+00
  6.51518929E+00  6.54244945E+00  6.68865960E+00  6.76692047E+00  6.84332981E+00
  6.85260881E+00  6.92383122E+00  7.04419536E+00  7.04761962E+00  7.09012663E+00
  7.18667175E+00  7.38218919E+00  7.47609253E+00  8.28739406E+00  2.24534339E+01
  2.34009269E+01  4.34959932E+01  4.39205095E+01  4.41079386E+01
Alpha MO coefficients                      R   N=       32041
  1.00302051E-05 -4.81775642E-05  4.66965912E-04  1.47993190E-04 -1.27557065E-03
 -1.64600317E-04  5.19144018E-06 -5.43966821E-05 -7.19030433E-05  5.99406078E-04
  4.54193656E-04 -2.30282543E-04 -1.51074506E-03 -2.93898974E-04 -5.36093034E-05
 -7.69459490E-06 -2.33167002E-05 -4.27595953E-05 -6.99922939E-05  5.98567702E-04
  1.14129051E-04 -7.27085458E-05  5.06105467E-04 -1.28536931E-04 -4.33953339E-06
 -4.41543635E-05  3.98290755E-06 -3.15471258E-05  1.78207670E-05  4.37444363E-05
  9.21964587E-05  3.05540837E-05 -1.79325985E-04 -8.30283425E-04  4.78030871E-03
 -2.22123783E-03 -9.42478955E-05 -5.10548653E-05  3.26659844E-06 -3.90320281E-03
 -4.25750906E-03 -1.59356191E-05  3.07268564E-03  2.87516199E-03  3.60058460E-05
 -2.77151581E-04  4.19908183E-06 -2.08029195E-06  4.35210669E-05  3.80621394E-04
 -1.37192349E-03  8.64192562E-06  3.04470573E-05  2.46432201E-05  3.26059964E-03