[Molden Format]
[Title]
 Molden file created by orca_2mkl for BaseName=PAA

[Atoms] AU
C    1   6          3.4873218902        -0.7803609173         0.0041359665 
C    2   6          0.7460523842         0.0101570216        -0.0373658466 
O    3   8         -0.8143713174        -1.8596409139        -0.0191081080 
O    4   8          0.0856025028         2.2428340703        -0.0386924613 
O    5   8         -4.1785805723         0.0335481743         0.0419426082 
H    6   1          3.7379679176        -2.7443519770        -0.6250942663 
H    7   1          4.1603532370        -0.6009990472         1.9714910094 
H    8   1          4.5671211148         0.5280802979        -1.2027157970 
H    9   1         -2.9095275415         1.5110095235         0.0345847752 
[GTO]
  1 0
s   5 1.0 
     1238.4016938000         0.8208956682
      186.2900499200         1.4766449896
       42.2511763460         2.1526124058
       11.6765579320         2.1081722461
        3.5930506482         0.8290999933
s   1 1.0 
        0.4024514736         0.3601183351
s   1 1.0 
        0.1309018267         0.1551027052
p   3 1.0 
        9.4680970621         1.3467645142
        2.0103545142         1.0678070931
        0.5477100471         0.5108735714
p   1 1.0 
        0.1526861379         0.1360471976
d   1 1.0 
        0.8000000000         1.9292013661

  2 0
s   5 1.0 
     1238.4016938000         0.8208956682
      186.2900499200         1.4766449896
       42.2511763460         2.1526124058
       11.6765579320         2.1081722461
        3.5930506482         0.8290999933
s   1 1.0 
        0.4024514736         0.3601183351
s   1 1.0 
        0.1309018267         0.1551027052
p   3 1.0 
        9.4680970621         1.3467645142
        2.0103545142         1.0678070931
        0.5477100471         0.5108735714
p   1 1.0 
        0.1526861379         0.1360471976
d   1 1.0 
        0.8000000000         1.9292013661

  3 0
s   5 1.0 
     2266.1767785000        -1.2615859742
      340.8701019100        -2.2748500410
       77.3631351670        -3.3479623295
       21.4796449400        -3.3299980531
        6.6589433124        -1.3203828288
s   1 1.0 
        0.8097597567         0.6083832301
s   1 1.0 
        0.2553077223         0.2559811911
p   3 1.0 
       17.7215043170         3.2460107647
        3.8635505440         2.5734959178
        1.0480920883         1.1208372892
p   1 1.0 
        0.2764154441         0.2856886381
d   1 1.0 
        1.2000000000         3.9222679946

  4 0
s   5 1.0 
     2266.1767785000        -1.2615859742
      340.8701019100        -2.2748500410
       77.3631351670        -3.3479623295
       21.4796449400        -3.3299980531
        6.6589433124        -1.3203828288
s   1 1.0 
        0.8097597567         0.6083832301
s   1 1.0 
        0.2553077223         0.2559811911
p   3 1.0 
       17.7215043170         3.2460107647
        3.8635505440         2.5734959178
        1.0480920883         1.1208372892
p   1 1.0 
        0.2764154441         0.2856886381
d   1 1.0 
        1.2000000000         3.9222679946

  5 0
s   5 1.0 
     2266.1767785000        -1.2615859742
      340.8701019100        -2.2748500410
       77.3631351670        -3.3479623295
       21.4796449400        -3.3299980531
        6.6589433124        -1.3203828288
s   1 1.0 
        0.8097597567         0.6083832301
s   1 1.0 
        0.2553077223         0.2559811911
p   3 1.0 
       17.7215043170         3.2460107647
        3.8635505440         2.5734959178
        1.0480920883         1.1208372892
p   1 1.0 
        0.2764154441         0.2856886381
d   1 1.0 
        1.2000000000         3.9222679946

  6 0
s   3 1.0 
       13.0107010000         0.1634903809
        1.9622572000         0.2773515510
        0.4445379600         0.3157501452
s   1 1.0 
        0.1219496200         0.1470772262

  7 0
s   3 1.0 
       13.0107010000         0.1634903809
        1.9622572000         0.2773515510
        0.4445379600         0.3157501452
s   1 1.0 
        0.1219496200         0.1470772262

  8 0
s   3 1.0 
       13.0107010000         0.1634903809
        1.9622572000         0.2773515510
        0.4445379600         0.3157501452
s   1 1.0 
        0.1219496200         0.1470772262

  9 0
s   3 1.0 
       13.0107010000         0.1634903809
        1.9622572000         0.2773515510
        0.4445379600         0.3157501452
s   1 1.0 
        0.1219496200         0.1470772262

[5D]
[7F]
[9G]
[MO]
 Sym=     1a
 Ene= -1.93233831746112E+01
 Spin= Alpha
 Occup= 2.000000
  1      -0.000064353266
  2       0.000727388792
  3      -0.002600288945
  4      -0.000357622297
  5       0.000022698563
  6       0.000126838150
  7       0.000006799763
  8      -0.003855951212
  9      -0.000784381332
 10       0.000014784810
 11       0.000015241074
 12       0.000120610361
 13       0.000384932317
 14       0.000282767507
 15      -0.000190341706
 16      -0.001110593544
 17      -0.008084728413
 18       0.000066123768
 19       0.000047944882
 20       0.000012877481
 21       0.008238346127
 22       0.010843671911
 23       0.000053586940
 24      -0.000396846254
 25       0.000022078900
 26      -0.000012892674
 27      -0.000558005914
 28       0.001327340760
 29       0.988930495952
 30      -0.041304088022
 31       0.031405029618
 32      -0.001053281199
 33      -0.002256238269
 34       0.000022036186
 35       0.003624182865
 36       0.006094686664
 37      -0.000096147906
 38      -0.000024491615
 39      -0.000003614592
 40       0.000001449029
 41       0.000035232257
 42      -0.000199570045
 43      -0.000576517694
 44       0.001126320317
 45      -0.003761654954
 46       0.000251137780
 47      -0.000200340720
 48      -0.000004005199
 49      -0.002706071400
 50       0.000238954503
 51       0.000009297423
 52       0.000136561514
 53       0.000008830792
 54      -0.000000485176
 55      -0.000292702298
 56       0.000348058532
 57      -0.000607213671
 58       0.000902965822
 59      -0.001611237144
 60       0.000228068916
 61      -0.000103983112
 62      -0.000003279533
 63      -0.001366060280
 64       0.000673241517
 65       0.000021304675
 66       0.000279507224
 67       0.000011369075
 68      -0.000006854621
 69      -0.000186652194
 70       0.000295999089
 71      -0.000169964177
 72      -0.001234144912
 73       0.000209266722
 74       0.001280999027
 75       0.000327303092
 76       0.000596327956
 77       0.000457365339
 78       0.000073634041
 Sym=     1a
 Ene= -1.92983996246884E+01
 Spin= Alpha
 Occup= 2.000000
  1       0.000008347647
  2      -0.000440599668
  3       0.004457484288
  4      -0.000021123863
  5       0.000061039684
  6      -0.000004681024
  7      -0.001733020666
  8       0.000897398365
  9       0.000027974583
 10      -0.000065643667
 11       0.000000658210
 12      -0.000005115140
 13       0.000061495875
 14      -0.000126906495
 15       0.000055611452
 16      -0.000498562820
 17      -0.004539527966
 18       0.000457534672
 19      -0.000232733249
 20      -0.000002147863
 21      -0.002558321225
 22      -0.001406921358
 23      -0.000047913915
 24       0.000070476512
 25      -0.000006790792
 26       0.000006333561
 27      -0.000156603122
 28      -0.000007559490
 29      -0.000746881240
 30      -0.000847175760
 31       0.001055498896
 32       0.000335675599
 33      -0.000173720010
 34      -0.000007018259
 35      -0.001810239848
 36       0.000937790651
 37       0.000042911225
 38      -0.000289233695
 39      -0.000012247271
 40       0.000007645692
 41       0.000148626608
 42      -0.000286563361
 43      -0.000059164504
 44       0.000107594886
 45       0.000131009910
 46      -0.000266242514
 47       0.000218832585
 48       0.000006507398
 49       0.002064438864
 50      -0.001028098137
 51      -0.000031896821
 52      -0.000027930105
 53       0.000002426166
 54      -0.000000006705
 55      -0.000139029062
 56      -0.000069804476
 57      -0.989313624063
 58       0.038071488699
 59      -0.020194777789
 60       0.001466229814
 61       0.000791280787
 62      -0.000014790670
 63      -0.003507674829
 64      -0.002085745723
 65       0.000035685271
 66       0.000251705352
 67       0.000006714688
 68      -0.000002390942
 69      -0.000056424564
 70      -0.000061862880
 71      -0.000156843239
 72      -0.000106138044
 73      -0.000168996197
 74      -0.000274708333
 75      -0.000162109279
 76      -0.000249154642
 77       0.001135930651
 78       0.006814048526
 Sym=     1a
 Ene= -1.92304745738484E+01
 Spin= Alpha
 Occup= 2.000000
  1       0.000048482933
  2      -0.000607734291
  3       0.007265363193
  4       0.000032289770
  5      -0.000246809350
  6      -0.000068321311
  7      -0.002853881682
  8      -0.002828368672
  9       0.000316282777
 10      -0.000098855416
 11       0.000039877384
 12       0.000137644948
 13       0.000173552408
 14       0.000635074913
 15       0.000238847197
 16       0.001861907782
 17       0.006084738590
 18       0.000307149777
 19      -0.000399192571
 20      -0.000011997536
 21      -0.005333787213
 22       0.015251751824
 23      -0.000061533363
 24       0.000726447594
 25      -0.000018025067
 26       0.000015070576
 27       0.001502408217
 28       0.000671142759
 29      -0.000805574095
 30      -0.001098695314
 31       0.004005834033
 32      -0.000365134913
 33      -0.000088986139
 34       0.000020305009
 35       0.002920490645
 36      -0.000797530476
 37      -0.000068395341
 38      -0.000119771756
 39      -0.000013777680
 40       0.000003629791
 41       0.000458376020
 42       0.000034623479
 43      -0.988804310586
 44       0.042082107244
 45      -0.033668057832
 46       0.000451980336
 47      -0.002740558295
 48       0.000001492764
 49      -0.001198761996
 50       0.007254380406
 51       0.000005488621
 52      -0.000120044260
 53       0.000002855997
 54       0.000001794847
 55      -0.000237044920
 56      -0.000212204231
 57       0.000095965221
 58       0.000432277726
 59      -0.001889762584
 60      -0.000110025759
 61       0.000074594032
 62       0.000002180747
 63      -0.000506585286
 64      -0.001049407909
 65       0.000002557369
 66       0.000067313036
 67       0.000000179929
 68       0.000001414746
 69       0.000010124528
 70      -0.000273429081
 71      -0.000593317093
 72      -0.001283842703
 73      -0.000172778904
 74      -0.001107673769
 75      -0.000011864594
 76      -0.000025791266
 77       0.001314648235
 78       0.001325058766
 Sym=     1a
 Ene= -1.03923552183425E+01
 Spin= Alpha
 Occup= 2.000000
  1      -0.000713244759
  2       0.001823903040
  3      -0.013574545596
  4      -0.001899924388
  5       0.000501728137
  6      -0.000046316306
  7       0.006034907176
  8      -0.001063994006
  9       0.000157767972
 10      -0.000780143752
 11       0.000026912645
 12      -0.000038600409
 13       0.001209378813
 14      -0.000767583888
 15      -0.988541516001
 16      -0.047198346638
 17       0.015317991670
 18       0.001750156986
 19      -0.000268061758
 20      -0.000051831142
 21       0.014059113174
 22      -0.005362941242
 23       0.000101199322
 24       0.002695398732
 25       0.000002781982
 26       0.000028809225
 27       0.001094525421
 28      -0.000203852197
 29      -0.000056053811
 30      -0.000970378942
 31       0.008373494407
 32       0.000952380749
 33       0.000434173118
 34      -0.000009453659
 35       0.001997679163
 36       0.006950328565
 37      -0.000057519409
 38      -0.000865188169
 39      -0.000011346615
 40      -0.000021197904
 41      -0.000348025565
 42       0.001165714322
 43      -0.000167532090
 44      -0.000955689894
 45       0.011410630220
 46       0.000659135976
 47      -0.000841631727
 48       0.000005476800
 49      -0.000483631516
 50      -0.007904746145
 51      -0.000026371820
 52      -0.000612729558
 53       0.000000059896
 54       0.000004656598
 55      -0.000798459793
 56      -0.000307853224
 57       0.000042999523
 58       0.000391763740
 59      -0.000461353710
 60       0.000185487362
 61       0.000018030975
 62       0.000000248076
 63      -0.000552299167
 64       0.000243822369
 65      -0.000000157005
 66       0.000076178319
 67       0.000003728932
 68      -0.000002285373
 69      -0.000135510708
 70       0.000152134107
 71       0.000294324539
 72       0.000082790163
 73       0.000267795844
 74      -0.000366304866
 75       0.000187060431
 76      -0.000445690020
 77      -0.000309133208
 78       0.000236233315
 Sym=     1a
 Ene= -1.02491064968645E+01
 Spin= Alpha
 Occup= 2.000000
  1       0.988666998260
  2       0.046648712758
  3      -0.047040356453
  4      -0.000948603992
  5       0.000287871707
  6       0.000077726798
  7       0.001355118782
  8      -0.000592872032
  9      -0.000327390514
 10      -0.000210823973
 11      -0.000029024450
 12       0.000006614462
 13       0.000260738232
 14      -0.000209804091
 15       0.000002640817
 16      -0.002154372575
 17       0.008747442459
 18      -0.001492164737
 19       0.000425856124
 20      -0.000001339185
 21       0.003349939194
 22      -0.000958245052
 23      -0.000161860464
 24       0.001007212375
 25      -0.000020547245
 26       0.000012666937
 27      -0.001180158845
 28       0.000819951972
 29      -0.000041446314
 30      -0.000493702487
 31       0.000905229976
 32      -0.000183610271
 33      -0.000039024704
 34      -0.000034873082
 35       0.001044979767
 36       0.000244319819
 37       0.000158800813
 38      -0.000137386566
 39       0.000022083814
 40      -0.000002352340
 41       0.000093579061
 42      -0.000016554196
 43      -0.000034163162
 44      -0.000455426000
 45       0.000902932235
 46      -0.000178170394
 47       0.000050540891
 48      -0.000035702813
 49       0.000619026525
 50      -0.000726915710
 51       0.000156309572
 52      -0.000188467501
 53       0.000019271881
 54      -0.000006811650
 55      -0.000047229118
 56      -0.000004566354
 57      -0.000005548226
 58      -0.000060766795
 59       0.000156617447
 60       0.000002028986
 61       0.000010046773
 62       0.000006423670
 63       0.000056253422
 64      -0.000096169967
 65      -0.000019178390
 66      -0.000007334980
 67      -0.000002999657
 68       0.000001990466
 69       0.000003127236
 70      -0.000034336886
 71      -0.001518942376
 72       0.009169834388
 73      -0.001374774721
 74       0.009451674328
 75      -0.001453472002
 76       0.009204135375
 77       0.000116532453
 78      -0.000115417750
 Sym=     1a
 Ene= -1.15098277692880E+00
 Spin= Alpha
 Occup= 2.000000
  1      -0.022628231481
  2       0.041703911829
  3       0.017201796775
  4      -0.024472131403
  5       0.004615814755
  6      -0.000136669124
  7      -0.011356058785
  8       0.000624776836
  9       0.000185590614
 10      -0.001999514823
 11       0.000073404302
 12       0.000081335453
 13       0.002781380746
 14      -0.001247900254
 15      -0.165073761757
 16       0.325609887689
 17       0.011723057663
 18      -0.107939856105
 19      -0.003705923519
 20       0.001352172229
 21      -0.009754393770
 22       0.005361918220
 23      -0.000082025035
 24      -0.019876213813
 25      -0.000181924493
 26      -0.000218987389
 27      -0.011077643032
 28       0.007794041323
 29       0.198317822366
 30       0.397751656376
 31       0.227700709121
 32       0.063962005527
 33       0.104375223303
 34      -0.000568020921
 35       0.017219804801
 36       0.033391232524
 37      -0.000083915438
 38      -0.007400136733
 39      -0.000133800271
 40      -0.000048696019
 41      -0.002274161240
 42       0.007641421570
 43       0.140563663556
 44       0.275163995637
 45       0.147295749097
 46       0.011043616271
 47      -0.099421967023
 48       0.000387895289
 49      -0.000908932427
 50      -0.022923238993
 51       0.000229509236
 52      -0.004896071247
 53      -0.000006824701
 54      -0.000062076452
 55      -0.007769583485
 56      -0.002664803190
 57       0.045004144360
 58       0.087510684706
 59       0.058526262136
 60       0.025211702616
 61       0.006984342735
 62      -0.000329183674
 63       0.014325438849
 64      -0.001308423862
 65      -0.000234677911
 66      -0.002761060951
 67      -0.000094898267
 68       0.000012331589
 69       0.001849196804
 70       0.000565832645
 71       0.006519268627
 72       0.000501565768
 73       0.005946913856
 74       0.000680735846
 75       0.005882344697
 76       0.001547648964
 77       0.042269465571
 78      -0.003069894283
 Sym=     1a
 Ene= -1.04724800743262E+00
 Spin= Alpha
 Occup= 2.000000
  1       0.002600477182
  2      -0.005050783723
  3      -0.006070867379
  4      -0.001178976771
  5      -0.014722190058
  6       0.000040314455
  7       0.002100793131
  8      -0.003053824508
  9       0.000015180636
 10       0.000056027876
 11       0.000078042931
 12       0.000323462987
 13       0.000569672605
 14       0.002193506718
 15       0.038299463618
 16      -0.077022449062
 17      -0.007753043811
 18      -0.028156425346
 19      -0.264337576369
 20       0.000939928088
 21       0.001264806700
 22      -0.027791043668
 23       0.000133483944
 24       0.002923658142
 25      -0.000167625484
 26      -0.000240258042
 27       0.013133733438
 28       0.026207284518
 29       0.176287508998
 30       0.360449568765
 31       0.212611578464
 32       0.053377372435
 33       0.053046439367
 34      -0.000415386910
 35       0.011302466442
 36       0.015997849377
 37      -0.000045538023
 38      -0.003845088991
 39      -0.000106400333
 40      -0.000013733625
 41       0.001856364747
 42       0.003549575094
 43      -0.218548576325
 44      -0.433894310025
 45      -0.245981120121
 46      -0.038333489916
 47       0.115536370179
 48      -0.000202724099
 49      -0.003079677789
 50       0.025124752224
 51      -0.000204471162
 52       0.004896631921
 53       0.000015367671
 54       0.000025240026
 55       0.006113545977
 56       0.005573086082
 57       0.022766771052
 58       0.043951613561
 59       0.039256891936
 60       0.009703679801
 61      -0.005921290643
 62      -0.000145412956
 63       0.008631270586
 64      -0.000821692812
 65      -0.000093148284
 66      -0.001515474233
 67      -0.000041875424
 68       0.000023205721
 69       0.000633921284
 70      -0.000358691063
 71       0.003585881172
 72       0.000763381149
 73      -0.001643872407
 74       0.000087788869
 75      -0.004415806350
 76      -0.000451773891
 77      -0.010370244443
 78      -0.004866816668
 Sym=     1a
 Ene= -9.90431210868772E-01
 Spin= Alpha
 Occup= 2.000000
  1      -0.013358086087
  2       0.025376981384
  3      -0.001664423418
  4      -0.011846529975
  5       0.000680766726
  6       0.000002381632
  7      -0.000717852756
  8      -0.000392435111
  9       0.000017160614
 10      -0.000763474302
 11       0.000013147358
 12       0.000003238209
 13       0.001255799422
 14      -0.000226369596
 15      -0.042398950341
 16       0.087334413679
 17      -0.000395903466
 18      -0.012710076089
 19      -0.031364046533
 20       0.000267776794
 21       0.015369197540
 22      -0.004688204551
 23      -0.000164763709
 24      -0.003584841146
 25       0.000062240255
 26      -0.000131144533
 27      -0.004279038989
 28       0.006064466273
 29       0.047963117372
 30       0.101522695935
 31       0.053599902599
 32       0.056166467197
 33       0.015280152684
 34      -0.000799911975
 35       0.028442628573
 36      -0.001901984186
 37      -0.000456288439
 38      -0.000163825622
 39       0.000027510796
 40      -0.000084322004
 41      -0.000198909771
 42       0.005440785514
 43       0.009285681501
 44       0.014458175137
 45       0.020281432551
 46       0.021020095706
 47      -0.012151664975
 48      -0.000343192724
 49       0.000480394180
 50      -0.010540841978
 51       0.000097412786
 52      -0.000717767750
 53       0.000024058443
 54      -0.000002194809
 55      -0.002254555546
 56      -0.001184229052
 57      -0.287622016470
 58      -0.584477272653
 59      -0.392532064627
 60      -0.071006168462
 61      -0.075371826464
 62       0.000450987636
 63      -0.024847254900
 64      -0.026265521820
 65       0.000170207987
 66       0.010952940253
 67       0.000201643178
 68      -0.000014283824
 69       0.000060207197
 70      -0.009084684118
 71       0.005883243061
 72       0.000270394798
 73       0.004612909223
 74       0.001128945872
 75       0.003992538090
 76       0.001134126458
 77      -0.172397072383
 78       0.018913140980
 Sym=     1a
 Ene= -7.71562765246476E-01
 Spin= Alpha
 Occup= 2.000000
  1       0.234390890927
  2      -0.482837303436
  3      -0.097994799075
  4       0.056801268053
  5      -0.019115410770
  6      -0.003475009657
  7      -0.015321670069
  8       0.005325219296
  9      -0.000530095076
 10      -0.000240080142
 11       0.000369979113
 12       0.000004534645
 13       0.000417297998
 14      -0.000107991193
 15       0.084365343030
 16      -0.179536536029
 17      -0.096694500892
 18      -0.209617667076
 19       0.063706836903
 20      -0.003246360045
 21      -0.096067321652
 22       0.032002221976
 23      -0.002187444028
 24       0.003848065828
 25      -0.000558999452
 26       0.000170207349
 27      -0.007899757642
 28       0.006601678064
 29       0.057634524036
 30       0.123265033525
 31       0.091828538248
 32      -0.061976541098
 33       0.017202706747
 34      -0.000909171963
 35      -0.028850338050
 36       0.002945544760
 37       0.000116989642
 38       0.000919826507
 39      -0.000019208543
 40      -0.000057007063
 41      -0.004878477988
 42      -0.002829780470
 43       0.049207947703
 44       0.102381988649
 45       0.068931467200
 46      -0.052493900024
 47      -0.004766322008
 48      -0.000736640079
 49      -0.022732125752
 50       0.005150694835
 51       0.000272150092
 52       0.000338201100
 53      -0.000036958270
 54       0.000057702576
 55      -0.001773568928
 56       0.004605510471
 57      -0.028603588603
 58      -0.059889102237
 59      -0.047405952668
 60       0.014766633034
 61      -0.011637496071
 62      -0.000428349362
 63       0.006910878791
 64      -0.006894246646
 65      -0.000169743891
 66       0.000320301050
 67      -0.000026655259
 68       0.000000720165
 69       0.001052699994
 70      -0.001159261168
 71      -0.129397470405
 72      -0.003963322353
 73      -0.135764182760
 74      -0.005838782574
 75      -0.132887870442
 76      -0.005967401480
 77       0.001541672133
 78      -0.002668817537
 Sym=     1a
 Ene= -5.83505400339460E-01
 Spin= Alpha
 Occup= 2.000000
  1      -0.070033390752
  2       0.148657650547
  3       0.027411172665
  4       0.145213224004
  5      -0.013394610577
  6       0.001764553682
  7       0.064451138240
  8       0.000372272635
  9       0.008182996126
 10       0.005328580887
 11      -0.000471510657
 12      -0.000644097311
 13      -0.009962091366
 14       0.003725369365
 15       0.154941565616
 16      -0.372325670650
 17      -0.040695435903
 18       0.072699021280
 19       0.116188466835
 20      -0.000909896281
 21       0.023199634563
 22       0.005890944385
 23      -0.001281359094
 24       0.007087735333
 25       0.000045620526
 26       0.000099022388
 27       0.002393095291
 28      -0.006378952890
 29       0.121338134388
 30       0.252481062293
 31       0.278906398063
 32      -0.263374087002
 33      -0.283886975027
 34       0.003151504521
 35      -0.138182689842
 36      -0.146579106931
 37       0.002103089246
 38       0.006638800426
 39       0.000044532241
 40       0.000181329384
 41       0.004422653586
 42      -0.015162569276
 43       0.079218447831
 44       0.162501535832
 45       0.174988355124
 46      -0.005175825361
 47       0.150748298964
 48      -0.000402456377
 49       0.000876102399
 50       0.078929654277
 51       0.000005109206
 52       0.003374371602
 53      -0.000022652180
 54       0.000038705270
 55       0.007219895649
 56       0.000241814381
 57      -0.015059024928
 58      -0.034359381414
 59      -0.023379014752
 60       0.025129889346
 61      -0.071865479125
 62      -0.000837726267
 63       0.021528899051
 64      -0.052095904108
 65      -0.000692683914
 66       0.000036126705
 67      -0.000055853322
 68       0.000046758642
 69       0.001725150502
 70      -0.004619321007
 71       0.078921575005
 72       0.030529754645
 73       0.086823758650
 74       0.010374531151
 75       0.098820933638
 76       0.019735595906
 77      -0.026422176975
 78       0.018692189423
 Sym=     1a
 Ene= -5.40484039921730E-01
 Spin= Alpha
 Occup= 2.000000
  1      -0.053126540083
  2       0.112628309117
  3       0.101538634549
  4       0.140406712264
  5      -0.122562802513
  6       0.009018498166
  7       0.043784291399
  8      -0.060727626902
  9       0.000479500047
 10       0.004686197074
 11       0.000183024916
 12       0.002632240851
 13      -0.007204234546
 14       0.007890813922
 15       0.063226011410
 16      -0.151488732225
 17      -0.059422607897
 18      -0.198030583981
 19      -0.179805477074
 20       0.006948081708
 21      -0.077042640679
 22       0.001653552821
 23       0.003548613221
 24      -0.000956344288
 25      -0.000244884087
 26       0.000145247654
 27       0.014015462932
 28      -0.002400365692
 29      -0.039174782509
 30      -0.079512727627
 31      -0.105286720200
 32       0.094985730047
 33       0.178970836917
 34       0.002303823452
 35       0.061414005482
 36       0.097560625514
 37       0.000734568481
 38      -0.003993757103
 39       0.000081529159
 40       0.000143887064
 41      -0.005720106850
 42       0.004920138635
 43       0.047756397006
 44       0.094361124064
 45       0.130595595350
 46      -0.270777583924
 47       0.141885361250
 48       0.006185823805
 49      -0.162260157300
 50       0.067853300023
 51       0.003894987641
 52       0.002630681204
 53      -0.000092452496
 54      -0.000356621003
 55       0.003896567962
 56       0.014747693561
 57      -0.057869754172
 58      -0.117665604431
 59      -0.153036027572
 60       0.148423275989
 61       0.191576624490
 62      -0.000777895210
 63       0.080206023390
 64       0.104584049815
 65      -0.000453415825
 66      -0.003988930150
 67      -0.000018924142
 68      -0.000117449956
 69      -0.000093160106
 70       0.011045006978
 71       0.127521413796
 72       0.004158729444
 73       0.076672428181
 74       0.011857117916
 75       0.041479467298
 76       0.008798246814
 77       0.195411521366
 78       0.039732379993
 Sym=     1a
 Ene= -5.12851767825165E-01
 Spin= Alpha
 Occup= 2.000000
  1      -0.038075769644
  2       0.080023332844
  3       0.122247581352
  4       0.187192940693
  5       0.047617447892
  6       0.030203544959
  7       0.065863678469
  8       0.036348543075
  9       0.004589201626
 10       0.007780553901
 11      -0.001684376455
 12      -0.002180469532
 13      -0.007139869688
 14       0.001055714083
 15      -0.018505919999
 16       0.046164413982
 17      -0.024998949276
 18      -0.210990762209
 19       0.238005780043
 20       0.037500428718
 21      -0.116274145203
 22       0.055495026081
 23       0.019429270535
 24      -0.002568725591
 25      -0.001277979215
 26      -0.000311972504
 27       0.016143143859
 28      -0.003982411193
 29      -0.005797203534
 30      -0.013260270322
 31      -0.013283429521
 32      -0.229820543940
 33       0.169451954969
 34       0.036870731352
 35      -0.144584287402
 36       0.106184773839
 37       0.022276474251
 38      -0.000985244437
 39       0.001173905342
 40       0.001653883483
 41      -0.014103595009
 42      -0.004989591163
 43      -0.095207528868
 44      -0.191855331644
 45      -0.263622617278
 46       0.001554067056
 47      -0.340634028109
 48       0.026486469404
 49      -0.006558037810
 50      -0.183118819550
 51       0.014864366855
 52      -0.008105154389
 53       0.000320423161
 54      -0.001815734161
 55      -0.013814758756
 56      -0.000257016084
 57      -0.023554748134
 58      -0.057595536700
 59      -0.013362555615
 60       0.093513673020
 61      -0.064231443296
 62       0.002875481744
 63       0.070072823208
 64      -0.031387903120
 65       0.002581831197
 66      -0.001222178178
 67       0.000155976925
 68       0.000052496486
 69       0.004756297996
 70      -0.001281942568
 71       0.011255051679
 72      -0.004893689494
 73       0.101482019802
 74       0.013468076981
 75       0.107765889601
 76      -0.001478444241
 77      -0.012681142817
 78      -0.052426412947
 Sym=     1a
 Ene= -5.09546991715227E-01
 Spin= Alpha
 Occup= 2.000000
  1       0.007499437203
  2      -0.016106993200
  3      -0.022098981779
  4      -0.033246439454
  5       0.000785149350
  6       0.205563477681
  7      -0.009850285264
  8      -0.004606882737
  9       0.085941270800
 10       0.005220006738
 11      -0.004672842379
 12       0.005294394674
 13       0.003895656744
 14      -0.002115734766
 15       0.002054636372
 16      -0.005616834930
 17       0.014309044388
 18       0.029902791535
 19      -0.020945592506
 20       0.346536762964
 21       0.016956671233
 22      -0.005939825841
 23       0.164251659387
 24       0.001294683516
 25      -0.011751975965
 26      -0.002179329117
 27      -0.001799478557
 28       0.000182493346
 29       0.002133991347
 30       0.005397125267
 31       0.001174466359
 32       0.021196729031
 33      -0.022295314993
 34       0.339752360174
 35       0.011093670402
 36      -0.013742065726
 37       0.203266489908
 38       0.000120685325
 39       0.010529102619
 40       0.015560282349
 41       0.001519648013
 42       0.000423559143
 43       0.009792944033
 44       0.020536736769
 45       0.023464441929
 46       0.003673704399
 47       0.036470890869
 48       0.247750379529