Runnong on hosts
Time is Thu Mar 21 13:18:29 CST 2024
Directory is /sh3/ysuanbase/home/yeesuan12892/TDDFT/optfreq/tdopt/linguang
this job runs on the following nodes:
n07128

                                 *****************
                                 * O   R   C   A *
                                 *****************

                                            #,                                       
                                            ###                                      
                                            ####                                     
                                            #####                                    
                                            ######                                   
                                           ########,                                 
                                     ,,################,,,,,                         
                               ,,#################################,,                 
                          ,,##########################################,,             
                       ,#########################################, ''#####,          
                    ,#############################################,,   '####,        
                  ,##################################################,,,,####,       
                ,###########''''           ''''###############################       
              ,#####''   ,,,,##########,,,,          '''####'''          '####       
            ,##' ,,,,###########################,,,                        '##       
           ' ,,###''''                  '''############,,,                           
         ,,##''                                '''############,,,,        ,,,,,,###''
      ,#''                                            '''#######################'''  
     '                                                          ''''####''''         
             ,#######,   #######,   ,#######,      ##                                
            ,#'     '#,  ##    ##  ,#'     '#,    #''#        ######   ,####,        
            ##       ##  ##   ,#'  ##            #'  '#       #        #'  '#        
            ##       ##  #######   ##           ,######,      #####,   #    #        
            '#,     ,#'  ##    ##  '#,     ,#' ,#      #,         ##   #,  ,#        
             '#######'   ##     ##  '#######'  #'      '#     #####' # '####'        



                  #######################################################
                  #                        -***-                        #
                  #          Department of theory and spectroscopy      #
                  #    Directorship and core code : Frank Neese         #
                  #        Max Planck Institute fuer Kohlenforschung    #
                  #                Kaiser Wilhelm Platz 1               #
                  #                 D-45470 Muelheim/Ruhr               #
                  #                      Germany                        #
                  #                                                     #
                  #                  All rights reserved                #
                  #                        -***-                        #
                  #######################################################


                         Program Version 5.0.3 -  RELEASE  -


 With contributions from (in alphabetic order):
   Daniel Aravena         : Magnetic Suceptibility
   Michael Atanasov       : Ab Initio Ligand Field Theory (pilot matlab implementation)
   Alexander A. Auer      : GIAO ZORA, VPT2 properties, NMR spectrum
   Ute Becker             : Parallelization
   Giovanni Bistoni       : ED, misc. LED, open-shell LED, HFLD
   Martin Brehm           : Molecular dynamics
   Dmytro Bykov           : SCF Hessian
   Vijay G. Chilkuri      : MRCI spin determinant printing, contributions to CSF-ICE
   Dipayan Datta          : RHF DLPNO-CCSD density
   Achintya Kumar Dutta   : EOM-CC, STEOM-CC
   Dmitry Ganyushin       : Spin-Orbit,Spin-Spin,Magnetic field MRCI
   Miquel Garcia          : C-PCM and meta-GGA Hessian, CC/C-PCM, Gaussian charge scheme
   Yang Guo               : DLPNO-NEVPT2, F12-NEVPT2, CIM, IAO-localization
   Andreas Hansen         : Spin unrestricted coupled pair/coupled cluster methods
   Benjamin Helmich-Paris : MC-RPA, TRAH-SCF, COSX integrals
   Lee Huntington         : MR-EOM, pCC
   Robert Izsak           : Overlap fitted RIJCOSX, COSX-SCS-MP3, EOM
   Marcus Kettner         : VPT2
   Christian Kollmar      : KDIIS, OOCD, Brueckner-CCSD(T), CCSD density, CASPT2, CASPT2-K
   Simone Kossmann        : Meta GGA functionals, TD-DFT gradient, OOMP2, MP2 Hessian
   Martin Krupicka        : Initial AUTO-CI
   Lucas Lang             : DCDCAS
   Marvin Lechner         : AUTO-CI (C++ implementation), FIC-MRCC
   Dagmar Lenk            : GEPOL surface, SMD
   Dimitrios Liakos       : Extrapolation schemes; Compound Job, initial MDCI parallelization
   Dimitrios Manganas     : Further ROCIS development; embedding schemes
   Dimitrios Pantazis     : SARC Basis sets
   Anastasios Papadopoulos: AUTO-CI, single reference methods and gradients
   Taras Petrenko         : DFT Hessian,TD-DFT gradient, ASA, ECA, R-Raman, ABS, FL, XAS/XES, NRVS
   Peter Pinski           : DLPNO-MP2, DLPNO-MP2 Gradient
   Christoph Reimann      : Effective Core Potentials
   Marius Retegan         : Local ZFS, SOC
   Christoph Riplinger    : Optimizer, TS searches, QM/MM, DLPNO-CCSD(T), (RO)-DLPNO pert. Triples
   Tobias Risthaus        : Range-separated hybrids, TD-DFT gradient, RPA, STAB
   Michael Roemelt        : Original ROCIS implementation
   Masaaki Saitow         : Open-shell DLPNO-CCSD energy and density
   Barbara Sandhoefer     : DKH picture change effects
   Avijit Sen             : IP-ROCIS
   Kantharuban Sivalingam : CASSCF convergence, NEVPT2, FIC-MRCI
   Bernardo de Souza      : ESD, SOC TD-DFT
   Georgi Stoychev        : AutoAux, RI-MP2 NMR, DLPNO-MP2 response
   Willem Van den Heuvel  : Paramagnetic NMR
   Boris Wezisla          : Elementary symmetry handling
   Frank Wennmohs         : Technical directorship


 We gratefully acknowledge several colleagues who have allowed us to
 interface, adapt or use parts of their codes:
   Stefan Grimme, W. Hujo, H. Kruse, P. Pracht,  : VdW corrections, initial TS optimization,
                  C. Bannwarth, S. Ehlert          DFT functionals, gCP, sTDA/sTD-DF
   Ed Valeev, F. Pavosevic, A. Kumar             : LibInt (2-el integral package), F12 methods
   Garnet Chan, S. Sharma, J. Yang, R. Olivares  : DMRG
   Ulf Ekstrom                                   : XCFun DFT Library
   Mihaly Kallay                                 : mrcc  (arbitrary order and MRCC methods)
   Jiri Pittner, Ondrej Demel                    : Mk-CCSD
   Frank Weinhold                                : gennbo (NPA and NBO analysis)
   Christopher J. Cramer and Donald G. Truhlar   : smd solvation model
   Lars Goerigk                                  : TD-DFT with DH, B97 family of functionals
   V. Asgeirsson, H. Jonsson                     : NEB implementation
   FAccTs GmbH                                   : IRC, NEB, NEB-TS, DLPNO-Multilevel, CI-OPT
                                                   MM, QMMM, 2- and 3-layer-ONIOM, Crystal-QMMM,
                                                   LR-CPCM, SF, NACMEs, symmetry and pop. for TD-DFT,
                                                   nearIR, NL-DFT gradient (VV10), updates on ESD,
                                                   ML-optimized integration grids
   S Lehtola, MJT Oliveira, MAL Marques          : LibXC Library
   Liviu Ungur et al                             : ANISO software


 Your calculation uses the libint2 library for the computation of 2-el integrals
 For citations please refer to: http://libint.valeyev.net

 Your ORCA version has been built with support for libXC version: 5.1.0
 For citations please refer to: https://tddft.org/programs/libxc/

 This ORCA versions uses:
   CBLAS   interface :  Fast vector & matrix operations
   LAPACKE interface :  Fast linear algebra routines
   SCALAPACK package :  Parallel linear algebra routines
   Shared memory     :  Shared parallel matrices
   BLAS/LAPACK       :  OpenBLAS 0.3.15  USE64BITINT DYNAMIC_ARCH NO_AFFINITY SkylakeX SINGLE_THREADED
        Core in use  :  SkylakeX
   Copyright (c) 2011-2014, The OpenBLAS Project


Your calculation utilizes the SMD solvation module
Please cite in your paper:
A.V. Marenich, C.J. Cramer, D.G. Truhlar J. Phys. Chem. B, 113, (2009), 6378 

================================================================================

----- Orbital basis set information -----
Your calculation utilizes the basis: def2-TZVP
   F. Weigend and R. Ahlrichs, Phys. Chem. Chem. Phys. 7, 3297 (2005).

----- AuxC basis set information -----
Your calculation utilizes the auxiliary basis: def2-TZVP/C
  H-La, Hf-Rn : A. Hellweg, C. Hattig, S. Hofener and W. Klopper, Theor. Chem. Acc. 117, 587 (2007).
        Ce-Lu : J. Chmela and M. E. Harding, Mol. Phys. (2018).

----- AuxJK basis set information -----
Your calculation utilizes the auxiliary basis: def2/JK
   H-Ba, Hf-Rn: F. Weigend, J. Comput. Chem. 29, 167 (2008).

================================================================================
                                        WARNINGS
                       Please study these warnings very carefully!
================================================================================


WARNING: Post HF methods need fully converged wavefunctions
  ===> : Setting SCFConvForced true
         You can overwrite this default with %scf ConvForced false 


WARNING: MDCI localization with Augmented Hessian Foster-Boys
  ===> : Switching off randomization!

INFO   : the flag for use of the SHARK integral package has been found!

================================================================================
                                       INPUT FILE
================================================================================
NAME = PAA.inp
|  1> ! STEOM-DLPNO-CCSD RIJK def2-TZVP def2/JK def2-TZVP/C tightSCF noautostart miniprint nopop
|  2> %maxcore  180000
|  3> %pal nprocs   56 end
|  4> %cpcm
|  5> smd true
|  6> SMDsolvent "water"
|  7> end
|  8> %mdci
|  9> nroots 5
| 10> dotriplet true
| 11> end
| 12> * xyz   0   1
| 13> C      1.84541126   -0.41294921    0.00218866
| 14> C      0.39479392    0.00537486   -0.01977315
| 15> O     -0.43094674   -0.98407959   -0.01011158
| 16> O      0.04529889    1.18685667   -0.02047517
| 17> O     -2.21120960    0.01775293    0.02219507
| 18> H      1.97804743   -1.45224852   -0.33078564
| 19> H      2.20156411   -0.31803500    1.04326811
| 20> H      2.41681640    0.27944806   -0.63644979
| 21> H     -1.53965566    0.79959180    0.01830147
| 22>  *
| 23> 
| 24>                          ****END OF INPUT****
================================================================================

                       ****************************
                       * Single Point Calculation *
                       ****************************

---------------------------------
CARTESIAN COORDINATES (ANGSTROEM)
---------------------------------
  C      1.845411   -0.412949    0.002189
  C      0.394794    0.005375   -0.019773
  O     -0.430947   -0.984080   -0.010112
  O      0.045299    1.186857   -0.020475
  O     -2.211210    0.017753    0.022195
  H      1.978047   -1.452249   -0.330786
  H      2.201564   -0.318035    1.043268
  H      2.416816    0.279448   -0.636450
  H     -1.539656    0.799592    0.018301

----------------------------
CARTESIAN COORDINATES (A.U.)
----------------------------
  NO LB      ZA    FRAG     MASS         X           Y           Z
   0 C     6.0000    0    12.011    3.487322   -0.780361    0.004136
   1 C     6.0000    0    12.011    0.746052    0.010157   -0.037366
   2 O     8.0000    0    15.999   -0.814371   -1.859641   -0.019108
   3 O     8.0000    0    15.999    0.085602    2.242834   -0.038692
   4 O     8.0000    0    15.999   -4.178581    0.033548    0.041943
   5 H     1.0000    0     1.008    3.737968   -2.744352   -0.625094
   6 H     1.0000    0     1.008    4.160353   -0.600999    1.971491
   7 H     1.0000    0     1.008    4.567121    0.528080   -1.202716
   8 H     1.0000    0     1.008   -2.909528    1.511010    0.034585



           ************************************************************
           *        Program running with 56 parallel MPI-processes    *
           *              working on a common directory               *
           ************************************************************
------------------------------------------------------------------------------
                   ___                                                        
                  /   \      - P O W E R E D   B Y -                         
                 /     \                                                     
                 |  |  |   _    _      __       _____    __    __             
                 |  |  |  | |  | |    /  \     |  _  \  |  |  /  |          
                  \  \/   | |  | |   /    \    | | | |  |  | /  /          
                 / \  \   | |__| |  /  /\  \   | |_| |  |  |/  /          
                |  |  |   |  __  | /  /__\  \  |    /   |      \           
                |  |  |   | |  | | |   __   |  |    \   |  |\   \          
                \     /   | |  | | |  |  |  |  | |\  \  |  | \   \       
                 \___/    |_|  |_| |__|  |__|  |_| \__\ |__|  \__/        
                                                                              
                      - O R C A' S   B I G   F R I E N D -                    
                                      &                                       
                       - I N T E G R A L  F E E D E R -                       
                                                                              
 v1 FN, 2020, v2 2021                                                         
------------------------------------------------------------------------------


Reading SHARK input file PAA.SHARKINP.tmp ... ok
----------------------
SHARK INTEGRAL PACKAGE
----------------------

Number of atoms                             ...      9
Number of basis functions                   ...    179
Number of shells                            ...     71
Maximum angular momentum                    ...      3
Integral batch strategy                     ... SHARK/LIBINT Hybrid
RI-J (if used) integral strategy            ... SPLIT-RIJ (Revised 2003 algorithm where possible)
Printlevel                                  ...      1
Contraction scheme used                     ... SEGMENTED contraction
Coulomb Range Separation                    ... NOT USED
Exchange Range Separation                   ... NOT USED
Finite Nucleus Model                        ... NOT USED
Auxiliary Coulomb fitting basis             ... NOT available
Auxiliary J/K fitting basis                 ... AVAILABLE
   # of basis functions in Aux-JK           ...    453
   # of shells in Aux-JK                    ...    149
   Maximum angular momentum in Aux-JK       ...      4
Auxiliary Correlation fitting basis         ... AVAILABLE
   # of basis functions in Aux-C            ...    440
   # of shells in Aux-C                     ...    138
   Maximum angular momentum in Aux-C        ...      4
Auxiliary 'external' fitting basis          ... NOT available
Integral threshold                          ...     2.500000e-11
Primitive cut-off                           ...     2.500000e-12
Primitive pair pre-selection threshold      ...     2.500000e-12

Calculating pre-screening integrals         ... done (  0.1 sec) Dimension = 71
Organizing shell pair data                  ... done (  0.1 sec)
Shell pair information
Total number of shell pairs                 ...      2556
Shell pairs after pre-screening             ...      2416
Total number of primitive shell pairs       ...      7872
Primitive shell pairs kept                  ...      5824
          la=0 lb=0:    640 shell pairs
          la=1 lb=0:    675 shell pairs
          la=1 lb=1:    186 shell pairs
          la=2 lb=0:    345 shell pairs
          la=2 lb=1:    185 shell pairs
          la=2 lb=2:     54 shell pairs
          la=3 lb=0:    175 shell pairs
          la=3 lb=1:     92 shell pairs
          la=3 lb=2:     49 shell pairs
          la=3 lb=3:     15 shell pairs

Calculating one electron integrals          ... done (  0.0 sec)
Calculating RI/JK V-Matrix + Cholesky decomp... done (  0.2 sec)
Calculating RI/C V-Matrix + Cholesky decomp.... done (  0.2 sec)
Calculating Nuclear repulsion               ... done (  0.0 sec) ENN=    172.585614610073 Eh

SHARK setup successfully completed in   0.9 seconds

Maximum memory used throughout the entire GTOINT-calculation: 16.2 MB


           ************************************************************
           *        Program running with 56 parallel MPI-processes    *
           *              working on a common directory               *
           ************************************************************

Diagonalization of the overlap matrix:
Smallest eigenvalue                        ... 4.075e-04
Time for diagonalization                   ...    0.006 sec
Threshold for overlap eigenvalues          ... 1.000e-08
Number of eigenvalues below threshold      ... 0
Time for construction of square roots      ...    0.058 sec
Total time needed                          ...    0.067 sec

Time for model grid setup =    0.189 sec

Loading Hartree-Fock densities                     ... done
Calculating cut-offs                               ... done
Initializing the effective Hamiltonian             ... done
Setting up the integral package (SHARK)            ... done
Starting the Coulomb interaction                   ... done (   0.3 sec)
Reading the grid                                   ... done
Mapping shells                                     ... done
Starting the XC term evaluation                    ... done (   0.1 sec)
Transforming the Hamiltonian                       ... done (   0.0 sec)
Diagonalizing the Hamiltonian                      ... done (   0.0 sec)
Back transforming the eigenvectors                 ... done (   0.0 sec)
Now organizing SCF variables                       ... done

--------------------
CPCM SOLVATION MODEL
--------------------
CPCM parameters:
  Epsilon                                         ...      78.3550
  Refrac                                          ...       1.3328
  Rsolv                                           ...       1.3000
  Surface type                                    ... GAUSSIAN VDW
  Epsilon function type                           ...         CPCM
Solvent:                                     ... WATER
SMD-CDS solvent descriptors:
  Soln                                       ...    1.3328
  Soln25                                     ...    1.3323
  Sola                                       ...    0.0000
  Solb                                       ...    0.0000
  Solg                                       ...    0.0000
  Solc                                       ...    0.0000
  Solh                                       ...    0.0000
Radii:
 Radius for C  used is    3.4960 Bohr (=   1.8500 Ang.)
 Radius for O  used is    2.8724 Bohr (=   1.5200 Ang.)
 Radius for H  used is    2.2677 Bohr (=   1.2000 Ang.)
Calculating surface                               ...        done! (  0.0s)
GEPOL surface points                              ...          612
GEPOL Volume                                      ...     467.0622
GEPOL Surface-area                                ...     340.6080
Calculating surface distance matrix               ...        done! (  0.0s)
Performing Cholesky decomposition & store         ...        done! (  0.0s)
Overall time for CPCM initialization              ...                 0.0s
--------------
SCF ITERATIONS
--------------
ITER       Energy         Delta-E        Max-DP      RMS-DP      [F,P]     Damp
  0   -302.3915524222   0.000000000000 0.04017223  0.00084248  0.3128558 0.7000
  1   -302.3121081702   0.079444251971 0.04032978  0.00087206  0.2647317 0.7000
                               ***Turning on DIIS***
  2   -302.3418678471  -0.029759676952 0.02655716  0.00063570  0.1865461 0.7000
  3   -302.6949620440  -0.353094196849 0.01233455  0.00040191  0.1329819 0.7000
  4   -302.5386549219   0.156307122122 0.03231350  0.00109184  0.0860047 0.0000
  5   -302.6142778794  -0.075622957512 0.01217085  0.00028831  0.0271397 0.0000
  6   -302.5695528711   0.044725008238 0.00502398  0.00011011  0.0146302 0.0000
  7   -302.5803587705  -0.010805899317 0.00263901  0.00006800  0.0074863 0.0000
  8   -302.5855039085  -0.005145138023 0.00216423  0.00004854  0.0047734 0.0000
                      *** Initiating the SOSCF procedure ***
                           *** Shutting down DIIS ***
                      *** Re-Reading the Fockian *** 
                      *** Removing any level shift *** 
ITER      Energy       Delta-E        Grad      Rot      Max-DP    RMS-DP
  9   -302.59673866  -0.0112347469  0.001010  0.001010  0.000536  0.000017
 10   -302.59939199  -0.0026533328  0.000411  0.000773  0.000345  0.000011
 11   -302.59939536  -0.0000033718  0.000240  0.001282  0.000717  0.000021
 12   -302.59939777  -0.0000024091  0.000158  0.000212  0.000177  0.000004
 13   -302.59939815  -0.0000003833  0.000067  0.000154  0.000096  0.000003
 14   -302.59939829  -0.0000001418  0.000037  0.000179  0.000108  0.000002
 15   -302.59939835  -0.0000000546  0.000012  0.000037  0.000021  0.000001
 16   -302.59939835  -0.0000000052  0.000004  0.000010  0.000009  0.000000
                  ***Gradient check signals convergence***
              ***Rediagonalizing the Fockian in SOSCF/NRSCF***

               *****************************************************
               *                     SUCCESS                       *
               *           SCF CONVERGED AFTER  17 CYCLES          *
               *****************************************************


SMD CDS free energy correction energy :                 3.56458     Kcal/mol
Total Energy after SMD CDS correction =              -302.593717836 Eh
Total Energy       :         -302.59371784 Eh           -8233.99367 eV
  Last Energy change         ...   -9.6014e-10  Tolerance :   1.0000e-08
  Last MAX-Density change    ...    4.0388e-06  Tolerance :   1.0000e-07
             **** THE GBW FILE WAS UPDATED (PAA.gbw) ****
             **** DENSITY PAA.scfp WAS UPDATED ****
             **** ENERGY FILE WAS UPDATED (PAA.en.tmp) ****
             **** THE GBW FILE WAS UPDATED (PAA.gbw) ****
             **** DENSITY PAA.scfp WAS UPDATED ****
----------------
ORBITAL ENERGIES
----------------

  NO   OCC          E(Eh)            E(eV) 
   0   2.0000     -20.739528      -564.3512 
   1   2.0000     -20.640179      -561.6478 
   2   2.0000     -20.561754      -559.5138 
   3   2.0000     -11.397097      -310.1308 
   4   2.0000     -11.237556      -305.7894 
   5   2.0000      -1.471166       -40.0324 
   6   2.0000      -1.363729       -37.1090 
   7   2.0000      -1.342647       -36.5353 
   8   2.0000      -1.004065       -27.3220 
   9   2.0000      -0.779558       -21.2129 
  10   2.0000      -0.751070       -20.4377 
  11   2.0000      -0.674882       -18.3645 
  12   2.0000      -0.663202       -18.0467 
  13   2.0000      -0.659003       -17.9324 
  14   2.0000      -0.612261       -16.6605 
  15   2.0000      -0.567763       -15.4496 
  16   2.0000      -0.548061       -14.9135 
  17   2.0000      -0.494877       -13.4663 
  18   2.0000      -0.481035       -13.0896 
  19   2.0000      -0.468527       -12.7493 
  20   0.0000      -0.037868        -1.0304 
  21   0.0000       0.155599         4.2341 
  22   0.0000       0.169208         4.6044 
  23   0.0000       0.217122         5.9082 
  24   0.0000       0.231768         6.3067 
  25   0.0000       0.244181         6.6445 
  26   0.0000       0.259281         7.0554 
  27   0.0000       0.299288         8.1440 
  28   0.0000       0.321377         8.7451 
  29   0.0000       0.348030         9.4704 
  30   0.0000       0.358841         9.7646 
  31   0.0000       0.368821        10.0361 
  32   0.0000       0.486667        13.2429 
  33   0.0000       0.495103        13.4724 
  34   0.0000       0.527147        14.3444 
  35   0.0000       0.545862        14.8537 
  36   0.0000       0.556862        15.1530 
  37   0.0000       0.576080        15.6759 
  38   0.0000       0.587337        15.9823 
  39   0.0000       0.595507        16.2046 
  40   0.0000       0.600756        16.3474 
  41   0.0000       0.625302        17.0153 
  42   0.0000       0.650507        17.7012 
  43   0.0000       0.669392        18.2151 
  44   0.0000       0.696242        18.9457 
  45   0.0000       0.753702        20.5093 
  46   0.0000       0.756461        20.5843 
  47   0.0000       0.782160        21.2837 
  48   0.0000       0.791844        21.5472 
  49   0.0000       0.810919        22.0662 
  50   0.0000       0.867772        23.6133 
  51   0.0000       0.917738        24.9729 
  52   0.0000       0.978566        26.6281 
  53   0.0000       0.987691        26.8764 
  54   0.0000       1.044178        28.4135 
  55   0.0000       1.097862        29.8743 
  56   0.0000       1.133919        30.8555 
  57   0.0000       1.149626        31.2829 
  58   0.0000       1.188879        32.3511 
  59   0.0000       1.238750        33.7081 
  60   0.0000       1.263296        34.3760 
  61   0.0000       1.402550        38.1653 
  62   0.0000       1.455988        39.6194 
  63   0.0000       1.519449        41.3463 
  64   0.0000       1.565730        42.6057 
  65   0.0000       1.616557        43.9888 
  66   0.0000       1.665179        45.3118 
  67   0.0000       1.694710        46.1154 
  68   0.0000       1.752272        47.6817 
  69   0.0000       1.771127        48.1948 
  70   0.0000       1.785579        48.5881 
  71   0.0000       1.789520        48.6953 
  72   0.0000       1.799645        48.9708 
  73   0.0000       1.838290        50.0224 
  74   0.0000       1.872412        50.9509 
  75   0.0000       1.918303        52.1997 
  76   0.0000       1.925429        52.3936 
  77   0.0000       2.025515        55.1171 
  78   0.0000       2.029541        55.2266 
  79   0.0000       2.124494        57.8104 
  80   0.0000       2.144846        58.3642 
  81   0.0000       2.181897        59.3724 
  82   0.0000       2.235646        60.8350 
  83   0.0000       2.276334        61.9422 
  84   0.0000       2.339226        63.6536 
  85   0.0000       2.364588        64.3437 
  86   0.0000       2.398925        65.2781 
  87   0.0000       2.436930        66.3122 
  88   0.0000       2.440484        66.4090 
  89   0.0000       2.485070        67.6222 
  90   0.0000       2.546642        69.2977 
  91   0.0000       2.562102        69.7184 
  92   0.0000       2.612488        71.0894 
  93   0.0000       2.632668        71.6385 
  94   0.0000       2.654555        72.2341 
  95   0.0000       2.716359        73.9159 
  96   0.0000       2.782636        75.7194 
  97   0.0000       2.833425        77.1014 
  98   0.0000       2.852259        77.6139 
  99   0.0000       2.904443        79.0339 
 100   0.0000       2.935270        79.8728 
 101   0.0000       3.013278        81.9955 
 102   0.0000       3.040035        82.7236 
 103   0.0000       3.076989        83.7291 
 104   0.0000       3.107371        84.5559 
 105   0.0000       3.115563        84.7788 
 106   0.0000       3.186079        86.6976 
 107   0.0000       3.206690        87.2585 
 108   0.0000       3.256351        88.6098 
 109   0.0000       3.285841        89.4123 
 110   0.0000       3.315623        90.2227 
 111   0.0000       3.346915        91.0742 
 112   0.0000       3.392283        92.3087 
 113   0.0000       3.445523        93.7574 
 114   0.0000       3.469670        94.4145 
 115   0.0000       3.483921        94.8023 
 116   0.0000       3.542593        96.3989 
 117   0.0000       3.575517        97.2948 
 118   0.0000       3.614593        98.3581 
 119   0.0000       3.652190        99.3811 
 120   0.0000       3.691186       100.4423 
 121   0.0000       3.751954       102.0959 
 122   0.0000       3.796501       103.3080 
 123   0.0000       3.845665       104.6459 
 124   0.0000       3.879746       105.5733 
 125   0.0000       3.996439       108.7486 
 126   0.0000       4.082849       111.1000 
 127   0.0000       4.087975       111.2394 
 128   0.0000       4.179900       113.7409 
 129   0.0000       4.207670       114.4965 
 130   0.0000       4.323579       117.6506 
 131   0.0000       4.400924       119.7552 
 132   0.0000       4.685288       127.4932 
 133   0.0000       4.709957       128.1644 
 134   0.0000       4.768478       129.7569 
 135   0.0000       4.799811       130.6095 
 136   0.0000       4.892209       133.1238 
 137   0.0000       5.116544       139.2282 
 138   0.0000       5.447591       148.2365 
 139   0.0000       5.456602       148.4817 
 140   0.0000       5.469640       148.8365 
 141   0.0000       5.491368       149.4277 
 142   0.0000       5.549168       151.0005 
 143   0.0000       5.579570       151.8278 
 144   0.0000       5.599536       152.3711 
 145   0.0000       5.605761       152.5405 
 146   0.0000       5.707746       155.3157 
 147   0.0000       5.743439       156.2869 
 148   0.0000       5.814545       158.2218 
 149   0.0000       5.922972       161.1723 
 150   0.0000       5.959438       162.1645 
 151   0.0000       6.035519       164.2348 
 152   0.0000       6.200403       168.7216 
 153   0.0000       6.400708       174.1721 
 154   0.0000       6.424502       174.8196 
 155   0.0000       6.479398       176.3134 
 156   0.0000       6.561055       178.5354 
 157   0.0000       6.606490       179.7717 
 158   0.0000       6.674912       181.6336 
 159   0.0000       6.718772       182.8271 
 160   0.0000       6.777510       184.4254 
 161   0.0000       6.823673       185.6816 
 162   0.0000       6.857376       186.5987 
 163   0.0000       6.933964       188.6828 
 164   0.0000       7.136799       194.2022 
 165   0.0000       7.179840       195.3734 
 166   0.0000       7.229428       196.7227 
 167   0.0000       7.235716       196.8938 
 168   0.0000       7.313515       199.0109 
 169   0.0000       7.342894       199.8103 
 170   0.0000       7.424417       202.0287 
 171   0.0000       7.612885       207.1571 
 172   0.0000       7.647308       208.0938 
 173   0.0000       7.673439       208.8049 
 174   0.0000      23.364303       635.7750 
 175   0.0000      24.464892       665.7236 
 176   0.0000      44.693073      1216.1603 
 177   0.0000      45.235848      1230.9300 
 178   0.0000      45.384540      1234.9761 
Total SCF time: 0 days 0 hours 0 min 18 sec 

Maximum memory used throughout the entire SCF-calculation: 13.0 MB


           ************************************************************
           *        Program running with 56 parallel MPI-processes    *
           *              working on a common directory               *
           ************************************************************


--------------------------------------------------------------------------------
                             ORCA-MATRIX DRIVEN CI
--------------------------------------------------------------------------------


Wavefunction type
-----------------
Correlation treatment                      ...      CCSD     
Single excitations                         ... ON
Orbital optimization                       ... OFF
Calculation of Z vector                    ... OFF
Calculation of Brueckner orbitals          ... OFF
Perturbative triple excitations            ... OFF
Calculation of F12 correction              ... OFF
Frozen core treatment                      ... chemical core (10 el)
Reference Wavefunction                     ... RHF
  Internal Orbitals:     5 ...   19 ( 15 MO's/ 30 electrons)
  Virtual  Orbitals:    20 ...  178 (159 MO's              )
Number of AO's                             ...    179
Number of electrons                        ...     40
Number of correlated electrons             ...     30

Algorithmic settings
--------------------
Integral transformation                    ... All integrals via the RI transformation
K(C) Formation                             ... RI-DLPNO
   PNO-Integral Storage                    ... ON DISK
   PNO occupation number cut-off           ... 3.330e-07
   Singles PNO occupation number cut-off   ... 9.990e-09
   PNO Mulliken prescreening cut-off       ... 1.000e-03
   Domain cut-off (Mulliken population)    ... 1.000e-03
   PNO Normalization                       ...    1
Maximum number of iterations               ...       100
Convergence tolerance (max. residuum)      ... 1.000e-05
Level shift for amplitude update           ... 2.000e-01
Maximum number of DIIS vectors             ...         7
DIIS turned on at iteration                ...         0
Damping before turning on DIIS             ...     0.500
Damping after turning on DIIS              ...     0.000
Pair specific amplitude update             ... OFF
Natural orbital iterations                 ... OFF
Perturbative natural orbital generation    ... OFF
Printlevel                                 ... 2

Singles Fock matrix elements calculated using PNOs.

Memory handling:
----------------
Maximum memory for working arrays          ... 180000 MB
Data storage in matrix containers          ... UNCOMPRESSED
Data type for integral storage             ... DOUBLE
In-Core Storage of quantities:
   Amplitudes+Sigma Vector      ... NO
   J+K operators                ... NO
   DIIS vectors                 ... NO
   3-external integrals         ... NO
   4-external integrals         ... NO

Localization treatment:
-----------------------
Localization option                        ...    6
Localization threshhold                    ... -1.0e+00
Using relative localization threshhold     ... 1.0e-08
Neglect threshold for strong pairs         ... 1.000e-04 Eh
Prescreening threshold for very weak pairs ... 1.000e-06 Eh

Initializing the integral package          ... done
Localizing the valence orbitals
------------------------------------------------------------------------------
                           ORCA ORBITAL LOCALIZATION
------------------------------------------------------------------------------

Input orbitals are from                  ... PAA.gbw
Output orbitals are to                   ... PAA.loc
Max. number of iterations                ... 128
Localizations seeded randomly            ... off
Convergence tolerance                    ... 1.000e-06
Using relative localization threshhold   ... 1.000e-08
Treshold for strong local MOs            ... 9.500e-01
Treshold for bond MOs                    ... 8.500e-01
Operator                                 ... 0
Orbital range for localization           ... 5 to 19
Localization criterion                   ... FOSTER-BOYS (AUGMENTED HESSIAN)
Doing the dipole integrals     ... o.k.
Initial value of the localization sum :   129.881573
ITERATION   0 : L=  143.6123612713 DL=  1.37e+01 (AVERGE_DL)=    0.3616205406 
ITERATION   1 : L=  144.4259015371 DL=  8.14e-01 (AVERGE_DL)=    0.0880227387 
ITERATION   2 : L=  144.4772142789 DL=  5.13e-02 (AVERGE_DL)=    0.0221063968 
ITERATION   3 : L=  144.4908287294 DL=  1.36e-02 (AVERGE_DL)=    0.0113868975 
ITERATION   4 : L=  144.4931810517 DL=  2.35e-03 (AVERGE_DL)=    0.0047331881 
ITERATION   5 : L=  144.4936529916 DL=  4.72e-04 (AVERGE_DL)=    0.0021200627 
ITERATION   6 : L=  144.4937787618 DL=  1.26e-04 (AVERGE_DL)=    0.0010944458 
ITERATION   7 : L=  144.4938457991 DL=  6.70e-05 (AVERGE_DL)=    0.0007990310 
ITERATION   8 : L=  144.4939001922 DL=  5.44e-05 (AVERGE_DL)=    0.0007197423 
ITERATION   9 : L=  144.4939494005 DL=  4.92e-05 (AVERGE_DL)=    0.0006845811 
ITERATION  10 : L=  144.4939949087 DL=  4.55e-05 (AVERGE_DL)=    0.0006583394 
ITERATION  11 : L=  144.4940372547 DL=  4.23e-05 (AVERGE_DL)=    0.0006350555 
ITERATION  12 : L=  144.4940767901 DL=  3.95e-05 (AVERGE_DL)=    0.0006136187 
ITERATION  13 : L=  144.4941138065 DL=  3.70e-05 (AVERGE_DL)=    0.0005937478 
ITERATION  14 : L=  144.4941485530 DL=  3.47e-05 (AVERGE_DL)=    0.0005752559 
ITERATION  15 : L=  144.4941812517 DL=  3.27e-05 (AVERGE_DL)=    0.0005580470 
ITERATION  16 : L=  144.4942120959 DL=  3.08e-05 (AVERGE_DL)=    0.0005419905 
ITERATION  17 : L=  144.4942412598 DL=  2.92e-05 (AVERGE_DL)=    0.0005270215 
ITERATION  18 : L=  144.4942688951 DL=  2.76e-05 (AVERGE_DL)=    0.0005130239 
ITERATION  19 : L=  144.4942951397 DL=  2.62e-05 (AVERGE_DL)=    0.0004999483 
ITERATION  20 : L=  144.4943201148 DL=  2.50e-05 (AVERGE_DL)=    0.0004877067 
ITERATION  21 : L=  144.4943439303 DL=  2.38e-05 (AVERGE_DL)=    0.0004762509 
ITERATION  22 : L=  144.4943666833 DL=  2.28e-05 (AVERGE_DL)=    0.0004655054 
ITERATION  23 : L=  144.4943884628 DL=  2.18e-05 (AVERGE_DL)=    0.0004554377 
ITERATION  24 : L=  144.4944093475 DL=  2.09e-05 (AVERGE_DL)=    0.0004459843 
ITERATION  25 : L=  144.4944294108 DL=  2.01e-05 (AVERGE_DL)=    0.0004371256 
ITERATION  26 : L=  144.4944487157 DL=  1.93e-05 (AVERGE_DL)=    0.0004287853 
ITERATION  27 : L=  144.4944673230 DL=  1.86e-05 (AVERGE_DL)=    0.0004209651 
ITERATION  28 : L=  144.4944852852 DL=  1.80e-05 (AVERGE_DL)=    0.0004136053 
ITERATION  29 : L=  144.4945026521 DL=  1.74e-05 (AVERGE_DL)=    0.0004066924 
ITERATION  30 : L=  144.4945194682 DL=  1.68e-05 (AVERGE_DL)=    0.0004001916 
ITERATION  31 : L=  144.4945357744 DL=  1.63e-05 (AVERGE_DL)=    0.0003940779 
ITERATION  32 : L=  144.4945516074 DL=  1.58e-05 (AVERGE_DL)=    0.0003883171 
ITERATION  33 : L=  144.4945670028 DL=  1.54e-05 (AVERGE_DL)=    0.0003829131 
ITERATION  34 : L=  144.4945819918 DL=  1.50e-05 (AVERGE_DL)=    0.0003778269 
ITERATION  35 : L=  144.4945966034 DL=  1.46e-05 (AVERGE_DL)=    0.0003730384 
ITERATION  36 : L=  144.4946108647 DL=  1.43e-05 (AVERGE_DL)=    0.0003685404 
ITERATION  37 : L=  144.4946248004 DL=  1.39e-05 (AVERGE_DL)=    0.0003643094 
ITERATION  38 : L=  144.4946384332 DL=  1.36e-05 (AVERGE_DL)=    0.0003603271 
ITERATION  39 : L=  144.4946517853 DL=  1.34e-05 (AVERGE_DL)=    0.0003565992 
ITERATION  40 : L=  144.4946648756 DL=  1.31e-05 (AVERGE_DL)=    0.0003530860 
DETECTED SLOW CONVERGENCE - QUITTING

------------------------------------------------------
AUGMENTED HESSIAN OPTIMIZATION OF FOSTER-BOYS ORBITALS
------------------------------------------------------

Spin operator:           0
Orbital window:          5 to 19
Number of iterations:    128
Gradient tolerance:      1.000e-06
Number of pairs:         105
Davidson threshold:      2000
Diagonalization method:  LAPACK
Iter:    0   L: 144.4946648756   Grad. norm: 4.811442e-03
Iter:    1   L: 144.4953104096   Grad. norm: 4.062121e-02
Iter:    2   L: 144.4954220355   Grad. norm: 4.016531e-02
Iter:    3   L: 144.4956389971   Grad. norm: 2.525110e-03
   *** Likely close to a maximum now. ***
       Augmented Hessian eigenvalues:  1.97e-05 -5.38e-02 -1.05e+00 -1.81e+00 ... 
Iter:    4   L: 144.4956493468   Grad. norm: 3.874529e-04
Iter:    5   L: 144.4956494185   Grad. norm: 2.762197e-06
Iter:    6   L: 144.4956494185   Grad. norm: 2.087455e-10
LOCALIZATION HAS CONVERGED.

Eigenvalues of the Hessian:
  0 -4.578e-02
  1 -1.048e+00
  2 -1.808e+00
  3 -1.902e+00
  4 -2.094e+00
  5 -3.393e+00
  6 -5.157e+00
  7 -5.471e+00
  8 -5.783e+00
  9 -5.878e+00
    ...


--------------------------------------------------------------------------------
                    LOCALIZED MOLECULAR ORBITAL COMPOSITIONS
--------------------------------------------------------------------------------

The Mulliken populations for each LMO on each atom are computed
The LMO`s will be ordered according to atom index and type
  (A) Strongly localized MO`s have populations of >=0.950 on one atom
  (B) Two center bond orbitals have populations of >=0.850 on two atoms
  (C) Other MO`s are considered to be `delocalized`

FOUND  -   5 strongly local MO`s
       -  10 two center bond MO`s
       -   0 significantly delocalized MO`s

Rather strongly localized orbitals:
MO   9:   4O  -   1.001181
MO   8:   4O  -   1.001063
MO   7:   3O  -   0.961226
MO   6:   3O  -   0.973542
MO   5:   2O  -   0.958021
Bond-like localized orbitals:
MO  19:   8H  -   0.225526  and   4O  -   0.783058
MO  18:   7H  -   0.430679  and   0C  -   0.584485
MO  17:   6H  -   0.427432  and   0C  -   0.569947
MO  16:   5H  -   0.431620  and   0C  -   0.594696
MO  15:   4O  -   0.269703  and   2O  -   0.726838
MO  14:   3O  -   0.712447  and   1C  -   0.297555
MO  13:   3O  -   0.714199  and   1C  -   0.298490
MO  12:   2O  -   0.662099  and   1C  -   0.353278
MO  11:   2O  -   0.926667  and   1C  -   0.071809
MO  10:   1C  -   0.595783  and   0C  -   0.432763
Localized MO's were stored in: PAA.loc

Localizing the core orbitals
------------------------------------------------------------------------------
                           ORCA ORBITAL LOCALIZATION
------------------------------------------------------------------------------

Input orbitals are from                  ... PAA.loc
Output orbitals are to                   ... PAA.loc
Max. number of iterations                ... 128
Localizations seeded randomly            ... off
Convergence tolerance                    ... 1.000e-06
Using relative localization threshhold   ... 1.000e-08
Treshold for strong local MOs            ... 9.500e-01
Treshold for bond MOs                    ... 8.500e-01
Operator                                 ... 0
Orbital range for localization           ... 0 to 4
Localization criterion                   ... FOSTER-BOYS (AUGMENTED HESSIAN)
Doing the dipole integrals     ... o.k.
Initial value of the localization sum :    39.947991
ITERATION   0 : L=   39.9479937091 DL=  2.60e-06 (AVERGE_DL)=    0.0005097490 
ITERATION   1 : L=   39.9479937091 DL=  0.00e+00 (AVERGE_DL)=    0.0000000000 
LOCALIZATION SUM CONVERGED

------------------------------------------------------
AUGMENTED HESSIAN OPTIMIZATION OF FOSTER-BOYS ORBITALS
------------------------------------------------------

Spin operator:           0
Orbital window:          0 to 4
Number of iterations:    128
Gradient tolerance:      1.000e-06
Number of pairs:         10
Davidson threshold:      2000
Diagonalization method:  LAPACK
Iter:    0   L: 39.9479937091   Grad. norm: 3.506974e-06
   *** Likely close to a maximum now. ***
       Augmented Hessian eigenvalues:  1.74e-13 -2.17e+01 -2.37e+01 -3.26e+01 ... 
Iter:    1   L: 39.9479937091   Grad. norm: 1.825189e-19
LOCALIZATION HAS CONVERGED.

Eigenvalues of the Hessian:
  0 -2.168e+01
  1 -2.372e+01
  2 -3.257e+01
  3 -5.962e+01
  4 -7.055e+01
  5 -7.867e+01
  6 -8.284e+01
  7 -9.227e+01
  8 -9.702e+01
  9 -2.377e+02


--------------------------------------------------------------------------------
                    LOCALIZED MOLECULAR ORBITAL COMPOSITIONS
--------------------------------------------------------------------------------

The Mulliken populations for each LMO on each atom are computed
The LMO`s will be ordered according to atom index and type
  (A) Strongly localized MO`s have populations of >=0.950 on one atom
  (B) Two center bond orbitals have populations of >=0.850 on two atoms
  (C) Other MO`s are considered to be `delocalized`

FOUND  -   5 strongly local MO`s
       -   0 two center bond MO`s
       -   0 significantly delocalized MO`s

Rather strongly localized orbitals:
MO   4:   4O  -   1.000012
MO   3:   3O  -   0.999372
MO   2:   2O  -   0.999557
MO   1:   1C  -   1.000358
MO   0:   0C  -   1.001155
Localized MO's were stored in: PAA.loc

Warning: reference  - re-canonicalizations have been set to INT 1 VIRT 1
Warning: internal orbitals are localized - no re-canonicalization of internal orbitals
Warning: UsePNO is turned on - no re-canonicalization of internal and virtual orbitals

--------------------------
CLOSED-SHELL FOCK OPERATOR
--------------------------

Restoring SHARK [2] ... ok
MDCI_FockCPCM: ediel   =  -0.019277168000
MDCI_FockCPCM: <VCPCM> =   0.008079353187
RI-JK section for the Fock operator:
  RHF full Fock operator         ... (SHARK)done
  RHF frozen core Fock operator  ... (SHARK)done
Adding the SMD CDS term to the reference energy ... ok
Time needed for Fock operator              ...            1.245 sec
Reference energy                           ...   -302.593717623

--------------
DLPNO SETTINGS (2015 fully linear scaling implementation)
--------------

TCutMKN:           1.000e-03
TCutPAO:           1.000e-03
TCutPNO:           3.330e-07
TCutPNOSingles:    9.990e-09
TCutEN:            9.700e-01
TCutPAOExt:        1.000e-01
TCutPairs:         1.000e-04
TCutPre:           1.000e-06
TCutOSV:           1.000e-06
TCutDOij:          1.000e-05
TCutDO:            1.000e-02
TCutC:             1.000e-04
TCutCPAO:          1.000e-03
TCutCMO:           1.000e-03
TScaleDOMP2PreScr: 2.000e+00
TScaleMKNMP2PreScr:1.000e+01
TScalePNOMP2PreScr:1.000e+00
PAO overlap thresh 1.000e-08
Using PNOs for Singles Fock computation
Use new domains
Use fully linear algorithm

--------------------------
Mulliken population of the LMOs            ... ok
Performing proximity check                 ... No problems found
Calculating differential overlap integrals ... ok

--------------------------
ELECTRON PAIR PRESCREENING
--------------------------

Dipole-based pair screening          .... used

   TCutDOij = 1.000000e-05
   TCutPre  = 1.000000e-06
   .... Finished loop over pairs
Total time spent in the prescreening                  ...     0.014 sec
sum of pair energies estimated for screened out pairs ...       0.000000000000 Eh
Thresholds for map construction and integral transformation for crude MP2:
   TCutMKN                    ...     1.0e-02
   TCutDO                     ...     2.0e-02
   TCutPairs                  ...     1.0e-04
   TCutPNO_CrudeMP2           ...     3.3e-07
   TCutPNOSingles_CrudeMP2    ...     1.0e-08
--------------------------------
LOCAL RI TRANSFORMATION (IAVPAO)
--------------------------------

Orbital window:       5 to 19
Number of PAOs:     179
Basis functions:    179 (71 shells)
Aux. functions:     440 (138 shells)
Use SHARK:           on

Processing maps (0.0 sec)
Average map sizes:
   Aux shells -> MOs              15.0
   Aux shells -> PAOs            179.0
   MOs        -> AO shells        71.0
   PAOs       -> AO shells        71.0

Calculating integrals (0.3 sec, 9.018 MB)
Sorting integrals (0.0 sec, 9.014 MB)
Total time for the integral transformation: 0.4 sec
--------------------------------
INITIAL GUESS AND PNO GENERATION
--------------------------------

PNO truncation parameters                   .... 
    PAOOverlapThresh   =        1.000e-08

    TCutPairs          =        1.000e-04
    TCutPNO            =        3.330e-07
    TCutPNOSingles     =        9.990e-09
    TCutMP2Pairs       =        1.000e-05
    TCutMKN            =        1.000e-02
    TCutDO             =        2.000e-02

Pair selection                          .... not used
Type of local MP2 treatment                 .... semi-local MP2
Strategy for PNO selection                  .... occupation number selection
Pair density normalization                  .... MP2 norm
Spin component scaling                      .... not used

   .... Finished loop over pairs
Making pair pair interaction lists          ... done

                       ===========================
                        112 OF  120 PAIRS ARE KEPT CCSD PAIRS
                          8 OF  120 PAIRS ARE KEPT MP2 PAIRS
                          0 OF  120 PAIRS ARE SKIPPED
                       ===========================

Total time spent in the initial guess                 ...     0.243 sec
SL-MP2 correlation energy (all non-screened pairs)    ...      -1.002642460662 Eh

Initial PNO correlation energy                        ...      -1.000159605162 Eh
sum of pair energies prescreened and skipped MP2 pairs...       0.000000000000 Eh
sum of pair energies of crude MP2 skipped pairs only  ...       0.000000000000 Eh
sum of MP2 pair energies for pairs that were not kept ...      -0.000432565500 Eh
sum of PNO error estimates for the kept pairs         ...      -0.002050290001 Eh
                                                          --------------------
sum of all corrections                                         -0.002482855501
Initial total correlation energy                               -1.002642460662
Thresholds for map construction and integral transformation for fine MP2 and CCSD(T) calculation:
   TCutMKN   ...     1.0e-03
   TCutDO    ...     1.0e-02
   TCutPairs ...     1.0e-04
   TCutCMO   ...     1.0e-03
   TCutCPAO  ...     1.0e-03

--------------------------------
LOCAL RI TRANSFORMATION (IAVPAO)
--------------------------------

Orbital window:       5 to 19
Number of PAOs:     179
Basis functions:    179 (71 shells)
Aux. functions:     440 (138 shells)
Use SHARK:           on

Processing maps (0.0 sec)
Average map sizes:
   Aux shells -> MOs              15.0
   Aux shells -> PAOs            179.0
   MOs        -> AO shells        71.0
   PAOs       -> AO shells        71.0

Calculating integrals (0.2 sec, 9.018 MB)
Sorting integrals (0.0 sec, 9.014 MB)
Total time for the integral transformation: 0.3 sec
--------------------------------
INITIAL GUESS AND PNO GENERATION
--------------------------------

PNO truncation parameters                   .... 
    PAOOverlapThresh   =        1.000e-08

    TCutPairs          =        1.000e-04
    TCutPNO            =        3.330e-07
    TCutPNOSingles     =        9.990e-09
    TCutMP2Pairs       =        1.000e-05
    TCutMKN            =        1.000e-03
    TCutDO             =        1.000e-02

Pair selection                          .... not used
Type of local MP2 treatment                 .... semi-local MP2
Strategy for PNO selection                  .... occupation number selection
Pair density normalization                  .... MP2 norm
Spin component scaling                      .... not used

   .... Finished loop over pairs

 PNO Occupation Number Statistics: 
  | Av. % of trace(Dij) retained        ...  99.053965697702
  | sigma^2 in % of trace(Dij) retained ...   1.91e+00
  | Av. % of trace(Di) retained         ...  99.999401570950
  | sigma^2 in % of trace(Di) retained  ...   6.73e-08
 Distributions of % trace(Dij) recovered:
  |       >= 99.9  ...    39 ( 32.5 % of all pairs)
  |   [90.0, 99.0) ...    33 ( 27.5 % of all pairs)
  |   [99.0, 99.9) ...    48 ( 40.0 % of all pairs)
 Distributions of % trace(Di) recovered :
  |       >= 99.9  ...    15 (100.0 % of all I-pairs )

Making pair pair interaction lists          ... done

                       ===========================
                        112 OF  120 PAIRS ARE KEPT
                       ===========================

Total time spent in the initial guess                 ...     0.511 sec
SL-MP2 correlation energy (all non-screened pairs)    ...      -1.003281925090 Eh

Initial PNO correlation energy                        ...      -1.000775512946 Eh
sum of pair energies estimated for screened out pairs ...       0.000000000000 Eh
sum of MP2 pair energies for pairs that were not kept ...      -0.000433724523 Eh
sum of PNO error estimates for the kept pairs         ...      -0.002072687621 Eh
                                                          --------------------
sum of all corrections                                         -0.002506412144
Initial total correlation energy                               -1.003281925090
Thresholds for map construction and integral transformation for fine MP2 and CCSD(T) calculation:
   TCutMKN   ...     1.0e-03
   TCutDO    ...     1.0e-02
   TCutPairs ...     1.0e-04
   TCutCMO   ...     1.0e-03
   TCutCPAO  ...     1.0e-03

Time for aux screen maps:            0.001
Time for maps after fine MP2:            0.002
-----------------------------
LOCAL RI TRANSFORMATION (IJV)
-----------------------------

Orbital window:       5 to 19
Basis functions:    179 (71 shells)
Aux. functions:     440 (138 shells)
Use SHARK:           on

Processing maps (0.0 sec)
Average map sizes:
   Aux shells -> MOs(i)           15.0
   Aux shells -> MOs(j)           15.0
   MOs        -> AO shells        71.0

Calculating integrals (0.2 sec, 0.760 MB)
Sorting integrals (0.0 sec, 0.755 MB)
Total time for the integral transformation: 0.4 sec
--------------------------------
LOCAL RI TRANSFORMATION (VABPAO)
--------------------------------

Number of PAOs:     179
Basis functions:    179 (71 shells)
Aux. functions:     440 (138 shells)
Use SHARK:           on

Processing maps (0.0 sec)
Average map sizes:
   Aux shells -> PAOs            179.0
   PAOs       -> AO shells        71.0

Calculating integrals (0.3 sec, 107.565 MB)
Finished


-------------------------------------
Pair Pair Term precalculation with     
RI-(ij|mn) and (im|jn) transformation  
ON THE FLY                             
-------------------------------------

   IBatch   1 (of   1)              ... done (    0.984 sec)
Total EXT                           ...           0.984 sec

---------------------
RI-PNO TRANSFORMATION
---------------------

Total Number of PNOs                   ...  3441
Average number of PNOs per pair        ...    30
Maximal number of PNOs per pair        ...    50
   #pairs with  1 -  5 PNOs   :    0
   #pairs with  6 - 10 PNOs   :    0
   #pairs with 11 - 15 PNOs   :    7
   #pairs with 16 - 20 PNOs   :   12
   #pairs with 21 - 25 PNOs   :   19
   #pairs with 26 - 30 PNOs   :   18
   #pairs with 31 - 35 PNOs   :   15
   #pairs with 36 - 40 PNOs   :   21
   #pairs with 41 - 45 PNOs   :   14
   #pairs with 46 - 50 PNOs   :    6

Generation of (ij|ab)[P] integrals            ... on
Generation of (ia|bc)[P],(ja|bc)[P] integrals ... on
Storage of 3 and 4 external integrals         ... on
Generation of ALL (ka|bc)[P] integrals        ... on
Keep RI integrals in memory                   ... off

Ibatch:  1 (of  1)
Starting 2-4 index PNO integral generation ... done

Timings:
Total PNO integral transformation time     ...          2.124 sec
Size of the 3-external file                ...        32 MB
Size of the 4-external file                ...       159 MB
Size of the IKJL file                      ...         0 MB
Size of the all 3-external file            ...       245 MB
Size of the 1-external file                ...         1 MB

---------------------------------
RI-PNO TRANSFORMATION FOR SINGLES
---------------------------------

Total Number of singles PNOs                   ...   857
Average number of PNOs per singles pair        ...    57
Maximal number of singles PNOs per pair        ...    80
   #pairs with  1 -  5 PNOs   :    0
   #pairs with  6 - 10 PNOs   :    0
   #pairs with 11 - 15 PNOs   :    0
   #pairs with 16 - 20 PNOs   :    0
   #pairs with 21 - 25 PNOs   :    0
   #pairs with 26 - 30 PNOs   :    0
   #pairs with 31 - 35 PNOs   :    0
   #pairs with 36 - 40 PNOs   :    2
   #pairs with 41 - 45 PNOs   :    1
   #pairs with 46 - 50 PNOs   :    0
   #pairs with 51 - 55 PNOs   :    3
   #pairs with 56 - 60 PNOs   :    3
   #pairs with 61 - 65 PNOs   :    4
   #pairs with 76 - 80 PNOs   :    2

Generation of (ia|bc)[P] integrals for singles ... on

Ibatch:  1 (of  1)
Starting 2-4 index PNO integral generation ... done
Making pair/pair overlap matrices          ... done (    0.256 sec)
Size of the pair overlap file              ... 71 MB
Redoing the guess amplitudes               ... done (    0.103 sec)

-------------------------
FINAL STARTUP INFORMATION
-------------------------

E(0)                                       ...   -302.593717623
E(SL-MP2)                                  ...     -1.003281925
E(SL-MP2) including corrections            ...     -1.003281925
Initial E(tot)                             ...   -303.596999548
<T|T>                                      ...      0.268996993
Number of pairs included                   ... 112
Total number of pairs                      ... 120

------------------------------------------------
                  RHF COUPLED CLUSTER ITERATIONS
------------------------------------------------

Number of PNO amplitudes to be optimized   ...       115811
Number of non-PNO amplitudes               ...      2831472
Untruncated number of regular amplitudes   ...      3033720

Iter       E(tot)           E(Corr)          Delta-E          Residual     Time
  0   -303.597031062     -1.000807027      0.002474898      0.041885417    3.57
                           *** Turning on DIIS ***
  1   -303.612272776     -1.016048741     -0.015241714      0.046770939    3.76
  2   -303.642729062     -1.046505027     -0.030456286      0.018366233    3.81
  3   -303.653421893     -1.057197858     -0.010692831      0.020703964    3.83
  4   -303.659242820     -1.063018785     -0.005820927      0.010424897    3.86
  5   -303.663890625     -1.067666590     -0.004647805      0.005255520    3.66
  6   -303.665309650     -1.069085615     -0.001419025      0.001322304    3.79
  7   -303.665671303     -1.069447267     -0.000361652      0.000597017    3.53
  8   -303.665831152     -1.069607117     -0.000159849      0.000337446    3.88
  9   -303.665836254     -1.069612219     -0.000005102      0.000177103    3.98
 10   -303.665876222     -1.069652187     -0.000039968      0.000112351    3.41
 11   -303.665859850     -1.069635815      0.000016372      0.000069784    3.71
 12   -303.665869742     -1.069645706     -0.000009891      0.000038118    3.75
 13   -303.665862845     -1.069638810      0.000006897      0.000024587    3.79
 14   -303.665860691     -1.069636656      0.000002153      0.000016360    4.09
 15   -303.665857979     -1.069633944      0.000002712      0.000012103    3.72
 16   -303.665856177     -1.069632142      0.000001802      0.000008687    4.11
               --- The Coupled-Cluster iterations have converged ---

----------------------
COUPLED CLUSTER ENERGY
----------------------

E(0)                                       ...   -302.593717623
E(CORR)(strong-pairs)                      ...     -1.069632142
E(CORR)(weak-pairs)                        ...     -0.002506412
E(CORR)(corrected)                         ...     -1.072138554
E(TOT)                                     ...   -303.665856177
Singles Norm <S|S>**1/2                    ...      0.195750671  
T1 diagnostic                              ...      0.035739019  

------------------
LARGEST AMPLITUDES
------------------
  15-> 20  15-> 20       0.229382
  15-> 20  -1-> -1       0.142227
  15-> 20   5-> 20       0.056142
   5-> 20  -1-> -1       0.055920
  15-> 20  11-> 20       0.043218
  13-> 20  13-> 20       0.043121
   8-> 20   8-> 20       0.042491
   9-> 20   9-> 20       0.042448
  14-> 20  14-> 20       0.042049
  11-> 20  -1-> -1       0.040926
  10-> 20  -1-> -1       0.039402
  13-> 21  -1-> -1       0.037056
  14-> 21  -1-> -1       0.036028
  16-> 27  16-> 27       0.034488
  10-> 22  10-> 22       0.032676
   9-> 22   9-> 22       0.032436


        !!!!!!!!!!!!!!!!!!!!!!!!!!!!!!!!!!!!!!!!!!!!!!!!!!!!!!!!!!!!!!!!!!!!!!!!!! 
        !  Warning: Linearized densities requested! These are not the proper     !
        !  density matrices for non-variational theories, e.g., CCSD, QCISD.     !
        !  It is better to use the Density = Unrelaxed option in the input.      !
        !!!!!!!!!!!!!!!!!!!!!!!!!!!!!!!!!!!!!!!!!!!!!!!!!!!!!!!!!!!!!!!!!!!!!!!!!! 

NORM  =      1.442773545 sqrt=     1.201155088
W(HF) =      0.693109465
------------------------------------------------------------------------------
                           ORCA POPULATION ANALYSIS
------------------------------------------------------------------------------
Input electron density              ... PAA.mdcip
BaseName (.gbw .S,...)              ... PAA
----------------------
ACTIVE SPACE SELECTION
----------------------
Calculating the RI metric                              ... done

WARNING: NRootsCISNAT (0) is lower than NRoots (5).
         I will take NRootsCISNAT = 5.

-------------------
RHF CIS CALCULATION
-------------------

Number of roots to be optimized            ... 5
Number of amplitudes to be optimized       ... 2385

Building the initial guess                 ... done
Iter    Delta-E          Residual
-------------------------------------------------------
  0   0.248260544439   0.052006739812 
  1   0.041140167526   0.002003669535 
  2   0.003204139862   0.000220234741 
  3   0.000276505490   0.000029388178 
  4   0.000042693603   0.000006016725 

      *** CONVERGENCE OF RESIDUAL NORM REACHED ***
        --- The CIS iterations have converged ---

-----------
CIS RESULTS
-----------

IROOT=  1: -0.023287 au    -0.634 eV   -5110.8 cm**-1
   12 ->  20    0.074527 ( 0.272996)
   14 ->  20    0.791138 ( 0.889460)
   16 ->  20    0.054476 (-0.233400)
   17 ->  20    0.013005 (-0.114040)
   19 ->  20    0.011034 ( 0.105043)
IROOT=  2: -0.014245 au    -0.388 eV   -3126.4 cm**-1
   11 ->  20    0.041761 (-0.204355)
   13 ->  20    0.024188 ( 0.155524)
   14 ->  20    0.014986 ( 0.122417)
   15 ->  20    0.019572 ( 0.139900)
   18 ->  20    0.299799 ( 0.547539)
   19 ->  20    0.559811 (-0.748205)
IROOT=  3:  0.083259 au     2.266 eV   18273.2 cm**-1
   10 ->  20    0.398749 ( 0.631466)
   11 ->  20    0.085931 (-0.293140)
   13 ->  20    0.236821 (-0.486643)
   18 ->  20    0.162147 ( 0.402674)
   19 ->  20    0.069733 ( 0.264070)
IROOT=  4:  0.128431 au     3.495 eV   28187.3 cm**-1
   12 ->  20    0.164190 ( 0.405204)
   16 ->  20    0.138082 ( 0.371593)
   17 ->  20    0.665015 ( 0.815485)
IROOT=  5:  0.204318 au     5.560 eV   44842.6 cm**-1
    9 ->  20    0.034509 ( 0.185767)
   10 ->  20    0.041507 (-0.203733)
   11 ->  20    0.080103 ( 0.283024)
   13 ->  20    0.127051 ( 0.356442)
   15 ->  20    0.068940 ( 0.262565)
   18 ->  20    0.394324 ( 0.627952)
   19 ->  20    0.234498 ( 0.484250)

--------------------------------------------------------------------
                UNRELAXED EXCITED STATE DIPOLE MOMENTS
--------------------------------------------------------------------
               E(eV)     DX(au)      DY(au)      DZ(au)      |D|(D)
IROOT=  1:    -0.634   -0.238391    0.406000    0.068597    1.209352
IROOT=  2:    -0.388    1.967394   -0.589912    0.019741    5.220920
IROOT=  3:     2.266    0.180698    0.640675    0.056564    1.698095
IROOT=  4:     3.495    3.000703   -0.588173    0.009273    7.772356
IROOT=  5:     5.560    3.438127    0.495962    0.003539    8.829487
--------------------------------------------------------------------


------------------------------------------
NATURAL ORBITALS FOR STATE    1
------------------------------------------

Making the (pseudo)densities                       ... done

------------------------------------------
NATURAL ORBITALS FOR STATE    2
------------------------------------------

Making the (pseudo)densities                       ... done

------------------------------------------
NATURAL ORBITALS FOR STATE    3
------------------------------------------

Making the (pseudo)densities                       ... done

------------------------------------------
NATURAL ORBITALS FOR STATE    4
------------------------------------------

Making the (pseudo)densities                       ... done

------------------------------------------
NATURAL ORBITALS FOR STATE    5
------------------------------------------

Making the (pseudo)densities                       ... done

------------------------------------------
STATE AVERAGED NATURAL ORBITALS FOR ACTIVE SPACE SELECTION
------------------------------------------

Solving eigenvalue problem for the occupied space  ... done
Solving eigenvalue problem for the virtual space   ... done
After automatic selection of the active space:
 No of roots active in IP calculation:    6  
 No of roots active in EA calculation:    3  
Testing the validity of the selected OCC active space ... 
OK !

Testing the validity of the selected VIRT active space ... 
OK !

After auto-adaptation of the active space:
 No of roots active in IP calculation:    6  
 No of roots active in EA calculation:    3  
done (    3.9)

---------------------------------------------------
            RHF EOM-DLPNO-CCSD CALCULATION
---------------------------------------------------

EOM type                                   ... IP-EOM
Eigenvectors                               ... RHS
Solver                                     ... Davidson
K(R) Formation                             ... MO
Convergence check                          ... for each root separately
Convergence threshold                      ... 1.00E-05
Root homing                                ... on
Preconditioning update                     ... CIS
Reduced space size (times number of roots) ... 40
Number of roots in the CIS initial guess   ... 6
Number of roots to be optimized            ... 6
Solving roots                              ... separately
Number of amplitudes to be optimized       ... 35790

--------------------------------
AUTOMATIC CHOICE OF INCORE LEVEL
--------------------------------

Memory available                           ... 179940.06 MB
Memory needed for Residual-vectors         ...      0.05 MB
Memory needed for Ritz-vectors             ...      0.30 MB
Memory needed for Sigma-vectors            ...      1.99 MB
Memory needed for State-vectors            ...      1.99 MB
 -> Final InCoreLevel    ... 5


Dressing integrals for EOM-DLPNO-CCSD            ... done (    0.5)
Building the initial guess                 ... done (    0.1)

BATCH   1 OF   6

Iter    Delta-E          Residual              Time
---------------------------------------------------
  0   0.594174351591   0.109691228013         1.394
  1   0.099679519480   0.021472909230         1.453
  2   0.035818116537   0.004198917370         1.551
  3   0.011766668597   0.009927280734         1.808
  4   0.013466886811   0.015097143963         1.862
  5   0.060125002305   0.006272439711         2.123
  6   0.002294609037   0.001826887564         2.291
  7   0.000505773293   0.000616507769         2.409
  8   0.001045109117   0.000186462035         2.719
  9   0.000381091445   0.000084472399         2.846
 10   0.000194143951   0.000047086448         2.883
 11   0.000028384652   0.000039723369         3.369
 12   0.000129187433   0.000029919233         3.140
 13   0.000008241184   0.000027685722         3.393
 14   0.000002804287   0.000073805347         3.598
 15   0.000645292638   0.001285826785         3.601
 16   0.000601188401   0.000162175301         3.841
 17   0.000123908339   0.000025802499         4.133
 18   0.000009810857   0.000009784703         2.536

      *** CONVERGENCE OF RESIDUAL NORM REACHED ***
        --- The EOM iterations have converged ---

BATCH   2 OF   6

Iter    Delta-E          Residual              Time
---------------------------------------------------
  0   0.592058323758   0.106231692828         1.238
  1   0.117021216049   0.018181991998         1.711
  2   0.035458371635   0.005627882446         1.361
  3   0.009864319092   0.007481865248         1.656
  4   0.004944010336   0.003859596828         2.014
  5   0.004008574014   0.001376613956         2.067
  6   0.002019248349   0.000860654791         2.168
  7   0.000539555274   0.000350475865         2.369
  8   0.000365221044   0.000133267506         2.529
  9   0.000395306806   0.000050218205         2.697
 10   0.000089396024   0.000018363834         2.932
 11   0.000056953888   0.000006034251         1.877

      *** CONVERGENCE OF RESIDUAL NORM REACHED ***
        --- The EOM iterations have converged ---

BATCH   3 OF   6

Iter    Delta-E          Residual              Time
---------------------------------------------------
  0   0.607911985914   0.101923641669         1.247
  1   0.130022105543   0.009351178070         1.366
  2   0.016209668154   0.004258372128         1.501
  3   0.004799175404   0.003615670406         1.739
  4   0.002444143432   0.001835979199         1.852
  5   0.001255377008   0.000817679022         2.173
  6   0.000739217450   0.000526712336         2.350
  7   0.001254583933   0.000471534484         2.488
  8   0.001367303085   0.000517390491         2.434
  9   0.000781691153   0.000392261849         2.662
 10   0.000830112424   0.000857071906         2.681
 11   0.010813674425   0.005431551710         3.012
 12   0.003614095097   0.001164950476         3.197
 13   0.001710830219   0.000431177244         3.529
 14   0.001181794233   0.000398756309         3.445
 15   0.001665247410   0.002191311021         3.750
 16   0.006905896702   0.002093585777         3.751
 17   0.000658836741   0.000302980573         3.758
 18   0.000272970361   0.000083379206         4.105
 19   0.000305075953   0.000058109255         4.490
 20   0.000024974504   0.000073494787         4.276
 21   0.000102246102   0.000044176268         4.721
 22   0.000127332302   0.000015609649         4.779
 23   0.000060787802   0.000005076886         2.961

      *** CONVERGENCE OF RESIDUAL NORM REACHED ***
        --- The EOM iterations have converged ---

BATCH   4 OF   6

Iter    Delta-E          Residual              Time
---------------------------------------------------
  0   0.673324545018   0.119194549600         1.267
  1   0.170915041297   0.017652474804         1.407
  2   0.037446989086   0.014150776354         1.514
  3   0.011995070620   0.007108046213         1.591
  4   0.001386690278   0.001825347564         1.783
  5   0.000626576572   0.000490949469         2.158
  6   0.000279960602   0.000242227224         2.172
  7   0.000246730732   0.000300945247         2.284
  8   0.000233311314   0.000865353923         2.406
  9   0.152530597288   0.008152965773         2.963
 10   0.156449987574   0.001108115544         2.898
 11   0.160807274202   0.002969499342         2.983
  --- complex eigenvalues and eigenvectors
 12   0.160603600376   0.000978959354         2.595
 13   0.179485676066   0.026903181248         3.085
 14   0.012590615874   0.002401461420         3.521
 15   0.002353855857   0.000899068138         3.553
 16   0.001210481023   0.000518195823         3.866
 17   0.001069827633   0.000478179120         4.103
 18   0.152856288800   0.000406466896         4.208
 19   0.000410532518   0.000127262659         4.360
 20   0.154509096632   0.002921108486         4.547
 21   0.001923269457   0.000241463109         4.655
 22   0.000255859613   0.000076438925         4.739
 23   0.000198631061   0.000228148266         4.658
 24   0.000397532622   0.000348870010         5.260
 25   0.000137912767   0.000058504216         5.410
 26   0.000158390773   0.000185876162         5.385
 27   0.000622004635   0.000642578563         5.821
 28   0.000356974108   0.000036398541         5.919
 29   0.000073876489   0.000030222208         5.919
 30   0.000180503800   0.000565699510         6.310
 31   0.000332509696   0.000066157382         6.439
 32   0.000066050920   0.000012302966         6.768
 33   0.000019542347   0.000012367799         6.587
 34   0.000018989278   0.000013246505         6.681
 35   0.000015458186   0.000008513521         3.960

      *** CONVERGENCE OF RESIDUAL NORM REACHED ***
        --- The EOM iterations have converged ---

BATCH   5 OF   6

Iter    Delta-E          Residual              Time
---------------------------------------------------
  0   0.755772572054   0.114514578810         1.277
  1   0.149448981923   0.021443232587         1.358
  2   0.041909341863   0.014343811276         1.538
  3   0.133719637628   0.099020701890         1.768
  4   0.082653630217   0.018024705473         1.919
  5   0.025565188572   0.012208944700         2.074
  6   0.017020455531   0.011121569558         2.327
  7   0.072632731600   0.019227131929         2.352
  8   0.021675393014   0.009501049478         2.522
  9   0.015766268571   0.011394383555         2.559
 10   0.025006557231   0.013582163942         3.138
 11   0.049925254009   0.010428630005         3.086
 12   0.018259743457   0.016944174277         3.517
 13   0.012935448724   0.009494954916         3.673
 14   0.015164325036   0.007196596656         3.396
 15   0.046770582484   0.007760181520         4.006
 16   0.005332922957   0.003154152102         3.804
 17   0.004809710860   0.004213110696         4.001
 18   0.019143041087   0.025292780776         4.158
 19   0.022978848758   0.002212944915         4.741
 20   0.002480519537   0.001038190311         4.752
 21   0.000936539299   0.001430729523         4.467
 22   0.053937453955   0.000990831185         4.694
 23   0.062116493737   0.003127337785         5.097
  --- complex eigenvalues and eigenvectors
 24   0.008770499594   0.001302748115         4.901
 25   0.000190266454   0.001194495121         5.515
 26   0.000662050000   0.000659902545         5.097
 27   0.053716932655   0.000180751225         5.215
 28   0.051850710428   0.000281076509         5.958
 29   0.052705785862   0.000025337538         5.917
 30   0.000052195677   0.000009428894         3.554

      *** CONVERGENCE OF RESIDUAL NORM REACHED ***
        --- The EOM iterations have converged ---

BATCH   6 OF   6

Iter    Delta-E          Residual              Time
---------------------------------------------------
  0   0.925588493994   0.174914227225         1.238
  1   0.081005380423   0.220604803997         1.669
  2   0.006791543654   0.228853225426         1.626
  3   0.006298907700   0.225473611357         1.816
  4   0.129492033222   0.153659788913         1.956
  5   0.014824776051   0.178039843643         2.280
  --- complex eigenvalues and eigenvectors
  6   0.027893209335   0.205043448736         1.983
  --- complex eigenvalues and eigenvectors
  7   0.129920159988   0.079853608352         1.929
  8   0.088973692532   0.064740234396         2.523
  9   0.199366945636   0.188670366994         2.492
 10   0.017165353569   0.212594143813         2.981
  --- complex eigenvalues and eigenvectors
 11   0.069115626023   0.182966117593         2.926
 12   0.100983280342   0.083925104553         3.130
 13   0.048607582881   0.021320108333         3.354
 14   0.014268707343   0.021833466272         3.404
 15   0.014185071704   0.006999255570         3.777
  --- complex eigenvalues and eigenvectors
 16   0.053123490401   0.047094712152         3.903
  --- complex eigenvalues and eigenvectors
 17   0.033299006027   0.009583198443         3.978
 18   0.006809622405   0.005088125067         4.070
 19   0.018077319952   0.026871616435         4.547
 20   0.027462867034   0.003506123427         4.665
 21   0.004585434593   0.000966805376         5.233
 22   0.011593594352   0.046198469667         5.187
 23   0.012643038461   0.000734990652         4.780
 24   0.000336668076   0.000131644919         5.076
 25   0.000097653082   0.000035049240         5.357
 26   0.000046137242   0.000014263638         5.445
 27   0.000059080255   0.000034306008         5.521
 28   0.000030653862   0.000089154787         5.521
 29   0.000038927043   0.000009190584         3.144

      *** CONVERGENCE OF RESIDUAL NORM REACHED ***
        --- The EOM iterations have converged ---

----------------------
EOM-CCSD RESULTS (RHS)
----------------------

IROOT=  1:  0.489473 au    13.319 eV  107427.0 cm**-1
  Amplitude    Excitation
   0.101413    11 -> x
   0.388621    18 -> x
   0.562016    19 -> x
Percentage singles character=     95.27

IROOT=  2:  0.417589 au    11.363 eV   91650.2 cm**-1
  Amplitude    Excitation
  -0.564046    18 -> x
   0.393413    19 -> x
Percentage singles character=     97.32

IROOT=  3:  0.456408 au    12.420 eV  100170.1 cm**-1
  Amplitude    Excitation
   0.159012    12 -> x
  -0.527314    14 -> x
   0.166405    16 -> x
  -0.364623    17 -> x
Percentage singles character=     96.12

IROOT=  4:  0.609281 au    16.579 eV  133721.7 cm**-1
  Amplitude    Excitation
  -0.648124    12 -> x
  -0.219397    14 -> x
Percentage singles character=     94.56

IROOT=  5:  0.567728 au    15.449 eV  124601.9 cm**-1
  Amplitude    Excitation
   0.287179    10 -> x
  -0.256004    11 -> x
   0.546601    13 -> x
   0.106684    15 -> x
Percentage singles character=     92.88

IROOT=  6:  0.701797 au    19.097 eV  154026.7 cm**-1
  Amplitude    Excitation
  -0.668123     9 -> x
   0.103250    10 -> x
Percentage singles character=     95.35


IP STATE=  0:  percentage singles     95.273 
IP STATE=  1:  percentage singles     97.318 
IP STATE=  2:  percentage singles     96.122 
IP STATE=  3:  percentage singles     94.558 
IP STATE=  4:  percentage singles     92.879 
IP STATE=  5:  percentage singles     95.349 
 Final no active IP roots:    6  
 EOMIP-CCSD done in (  513.3)

---------------------------------------------------
            RHF EOM-DLPNO-CCSD CALCULATION
---------------------------------------------------

EOM type                                   ... EA-EOM
Eigenvectors                               ... RHS
Solver                                     ... Davidson
K(R) Formation                             ... MO
Convergence check                          ... for each root separately
Convergence threshold                      ... 1.00E-05
Root homing                                ... on
Preconditioning update                     ... CIS
Reduced space size (times number of roots) ... 40
Number of roots in the CIS initial guess   ... 3
Number of roots to be optimized            ... 3
Solving roots                              ... separately
Number of amplitudes to be optimized       ... 379374

--------------------------------
AUTOMATIC CHOICE OF INCORE LEVEL
--------------------------------

Memory available                           ...  89935.58 MB
Memory needed for 3-ext integrals          ...      4.10 MB
Memory needed for 4-ext integrals          ...     62.80 MB
Memory needed for Residual-vectors         ...      0.39 MB
Memory needed for Ritz-vectors             ...      1.17 MB
Memory needed for Sigma-vectors            ...     15.64 MB
Memory needed for State-vectors            ...     15.64 MB
 -> Final InCoreLevel    ... 5


Dressing integrals for EOM-DLPNO-CCSD            ... done (    0.5)
Building the initial guess                 ... done (    0.0)

BATCH   1 OF   3

Iter    Delta-E          Residual              Time
---------------------------------------------------
  0   0.073997972105   0.256358357804         1.553
  1   0.153549631588   0.013695778981         1.935
  2   0.014190567376   0.001528253535         1.865
  3   0.000726748620   0.000136788245         2.035
  4   0.000052862052   0.000012761886         2.159
  5   0.000053068067   0.000001671535         1.709

      *** CONVERGENCE OF RESIDUAL NORM REACHED ***
        --- The EOM iterations have converged ---

BATCH   2 OF   3

Iter    Delta-E          Residual              Time
---------------------------------------------------
  0   0.673556923248   0.393185147037         1.673
  1   0.002279326411   0.368046669814         2.237
  2   0.005051258214   0.238413137610         1.707
  3   0.038289059177   0.319264176387         1.840
  4   0.037067079864   0.364702445169         2.431
  5   0.007326822691   0.387131607550         2.268
  --- complex eigenvalues and eigenvectors
  6   0.003787799796   0.406499006979         2.519
  7   0.091934308889   0.264490561035         2.723
  8   0.106524904930   0.476090274748         2.723
[...]

Max core memory to be used            ... 180000 MB
Memory needed per MO                  ...   0.1 MB
# of MOs treated in a batch           ... 1
# of batches needed                   ... 1
Data format used                      ... DOUBLE
 done (    0.019 sec)
Closing buffer KIJ ( 0.00 GB; CompressionRatio= 1.00)
(ik|ja) transformation completed in     0.176 sec

-----------------------
RI-FORMATION OF (ij|ka)
-----------------------

Max core memory to be used            ... 180000 MB
Memory needed per MO pair             ...   0.0 MB
# of MO pairs included in trafo       ... 120
# of MO pairs treated in a batch      ... 3
# of batches needed                   ... 1
Data format used                      ... DOUBLE
 done (    0.012 sec)
Closing buffer JIJ ( 0.00 GB; CompressionRatio= 1.00)
(ij|ka) transformation completed in     0.177 sec

-----------------------
RI-FORMATION OF (ia|jb)
-----------------------

Max core memory to be used            ... 180000 MB
Memory needed per MO                  ...   0.7 MB
# of MOs treated in a batch           ... 2
# of batches needed                   ... 1
Data format used                      ... DOUBLE
 done (    0.087 sec)
Closing buffer KIJ ( 0.02 GB; CompressionRatio= 1.00)
(ia|jb) transformation completed in     0.106 sec

------------------------------
INTEGRAL RI-(ij|ab)
------------------------------

Orbital Window                         ...    5..  19 -   20.. 178
Memory available                       ... 180000 MB

Reading internal integrals             ... done (    0.054 sec)
Generating and transforming integrals  ...
  Aux angular momentum 0               ... done (    0.017 sec)
  Aux angular momentum 1               ... done (    0.007 sec)
  Aux angular momentum 2               ... done (    0.008 sec)
  Aux angular momentum 3               ... done (    0.008 sec)
  Aux angular momentum 4               ... done (    0.009 sec)
  (v|ab)                               ... done (    0.058 sec)
Orthogonalizing and resorting integrals...
  (a|vb)                               ... done (    0.303 sec)
Generating ij|ab                       ...
  (ij|ab)                              ... done (    0.082 sec)

(ij|ab) transformation completed in     0.900 sec
Closing buffer IJAB[0] ( 0.01 GB; CompressionRatio= 1.00)
 Integral transformation done in (    3.0)
  Making IJABD,IAJBD    ... done (    1.7)
Performing recanonicalization
Recanonicalization of T (ground state) amplitudes ... 
 T amplitudes recanonicalization done in (    0.5)
Recanonicalization of IP amplitudes ... 
 IP amplitudes recanonicalization done in (    0.4)
Recanonicalization of EA amplitudes ... 
 EA amplitudes recanonicalization done in (    0.2)
  Making FD             ... done (    1.2)
  Making IKJADs,IKJAD   ... done (    0.3)

---------------------------------------------------
           RHF STEOM-CCSD CALCULATION
---------------------------------------------------

EOM type                                   ... STEOM
Multiplicity                               ... triplet
Solver                                     ... Davidson
Convergence check                          ... for each root separately
Convergence threshold                      ... 1.00E-05
Root homing                                ... on
Preconditioning update                     ... CIS
Reduced space size (times number of roots) ... 40
Number of roots in the CIS initial guess   ... 200
Number of roots to be optimized            ... 5
Number of amplitudes to be optimized       ... 2385

--------------------------------
AUTOMATIC CHOICE OF INCORE LEVEL
--------------------------------

Memory available                           ... 180000.00 MB
Memory needed for SIP and SEA amplitudes   ...     10.32 MB
 -> Final InCoreLevel    ... 1


Making SIP amplitudes for STEOM-CCSD       ... done (   10.5)
Making SEA amplitudes for STEOM-CCSD       ... done (    0.9)
Dressing integrals for STEOM-CCSD          ... 
Dressing of Occ / Occ block ... done (    0.0)
Dressing of Virt / Virt block ... done (    0.0)

---------------------
CHAIN OF SPHERES GRID
---------------------

General Integration Accuracy     IntAcc      ... 4.020
Radial Grid Type                 RadialGrid  ... OptM3 with GC (2021)
Angular Grid (max. ang.)         AngularGrid ... 2 (Lebedev-110)
Angular grid pruning method      GridPruning ... 4 (adaptive)
Weight generation scheme         WeightScheme... Becke
Basis function cutoff            BFCut       ... 1.0000e-11
Integration weight cutoff        WCut        ... 1.0000e-14
Angular grids for H and He will be reduced by one unit
Partially contracted basis set               ... on
Rotationally invariant grid construction     ... off

Total number of grid points                  ...    12379
Total number of batches                      ...      197
Average number of points per batch           ...       62
Average number of grid points per atom       ...     1375
UseSFitting                                  ... on

done (  739.9)
done (   18.4)
Building the initial guess                 ... done (    0.2)
Solving Root No   1 

Iter    Delta-E          Residual              Time
---------------------------------------------------
  0   0.015703604318   0.088895440796         0.041
  1   0.001264524182   0.002276887623         0.018
  --- complex eigenvalues and eigenvectors
  2   0.001408178562   0.001082070619         0.018
  3   0.000340590312   0.000445672128         0.016
  4   0.000369445231   0.000055489330         0.020
  --- complex eigenvalues and eigenvectors
  5   0.000226864984   0.000014590381         0.017
  --- complex eigenvalues and eigenvectors
  6   0.000005433260   0.000028861216         0.016
  7   0.000198933716   0.000025220274         0.050
  --- complex eigenvalues and eigenvectors
  8   0.000121711181   0.000016775893         0.036
  --- complex eigenvalues and eigenvectors
  9   0.000059921532   0.000003289831         0.019

      *** CONVERGENCE OF RESIDUAL NORM REACHED ***
       --- The STEOM iterations have converged ---
Solving Root No   2 

Iter    Delta-E          Residual              Time
---------------------------------------------------
  0   0.039494719583   0.010469517275         0.011
  1   0.003957441523   0.001064669656         0.025
  2   0.000414492244   0.000177214056         0.027
  3   0.000948178118   0.000166682324         0.027
  4   0.001543440434   0.000305496770         0.019
  --- complex eigenvalues and eigenvectors
  5   0.002635867548   0.001725883331         0.058
  6   0.005694995961   0.001688066985         0.036
  --- complex eigenvalues and eigenvectors
  7   0.000501245340   0.000365257110         0.013
  --- complex eigenvalues and eigenvectors
  8   0.000104979456   0.000239890752         0.035
  --- complex eigenvalues and eigenvectors
  9   0.000023799473   0.000083552984         0.020
  --- complex eigenvalues and eigenvectors
 10   0.000087601445   0.000024304721         0.030
 11   0.000046114114   0.000005601137         0.054

      *** CONVERGENCE OF RESIDUAL NORM REACHED ***
       --- The STEOM iterations have converged ---
Solving Root No   3 

Iter    Delta-E          Residual              Time
---------------------------------------------------
  0   0.107114152020   0.013845279635         0.018
  1   0.011464489587   0.004033561211         0.039
  2   0.018099308088   0.004979219330         0.030
  3   0.004838184177   0.000392615122         0.027
  4   0.000771112754   0.000087278303         0.021
  5   0.000562198903   0.000179367147         0.017
  6   0.002360904392   0.001599012446         0.020
  --- complex eigenvalues and eigenvectors
  7   0.001235317349   0.000054963782         0.019
  8   0.000199332082   0.000009848673         0.031

      *** CONVERGENCE OF RESIDUAL NORM REACHED ***
       --- The STEOM iterations have converged ---
Solving Root No   4 

Iter    Delta-E          Residual              Time
---------------------------------------------------
  0   0.143003015966   0.122625971806         0.030
  1   0.006437961571   0.010257545257         0.033
  2   0.006938098553   0.001959754193         0.026
  --- complex eigenvalues and eigenvectors
  3   0.011797048365   0.001989484617         0.024
  4   0.020540346611   0.000996769129         0.027
  5   0.000410889878   0.000103731863         0.038
  6   0.000689679759   0.000025192833         0.031
  --- complex eigenvalues and eigenvectors
  7   0.001142312524   0.007577000650         0.031
  8   0.000523312558   0.000025499793         0.035
  --- complex eigenvalues and eigenvectors
  9   0.000338455254   0.000004782551         0.014

      *** CONVERGENCE OF RESIDUAL NORM REACHED ***
       --- The STEOM iterations have converged ---
Solving Root No   5 

Iter    Delta-E          Residual              Time
---------------------------------------------------
  0   0.135261280458   0.011971820605         0.014
  1   0.010186084374   0.012289106759         0.020
  2   0.030539273466   0.015904119450         0.027
  3   0.076746349825   0.004970560119         0.021
  4   0.005755400792   0.003239063632         0.018
  5   0.012895969737   0.009575652737         0.034
  6   0.015408350810   0.005911534976         0.024
  7   0.004494881428   0.000771575808         0.029
  --- complex eigenvalues and eigenvectors
  8   0.000104752142   0.000188938770         0.054
  9   0.000351993362   0.000125907308         0.057
 10   0.000131032306   0.000890653578         0.030
 11   0.000347668701   0.000051821517         0.030
 12   0.000104830412   0.000026010184         0.040
 13   0.000170260377   0.000054921377         0.026
  --- complex eigenvalues and eigenvectors
 14   0.000379927949   0.000588405294         0.059
  --- complex eigenvalues and eigenvectors
 15   0.000187931839   0.000010712267         0.030
  --- complex eigenvalues and eigenvectors
 16   0.000002377393   0.000001440052         0.030

      *** CONVERGENCE OF RESIDUAL NORM REACHED ***
       --- The STEOM iterations have converged ---

------------------
STEOM-CCSD RESULTS
------------------

IROOT=  1:  0.016398 au     0.446 eV    3599.0 cm**-1
  Amplitude    Excitation
   0.413580    11 ->  20
  -0.223657    13 ->  20
   0.868843    16 ->  20
   0.101634    16 ->  22
  Ground state amplitude:  0.000000

Percentage Active Character     77.46

Warning:: the state may have not converged with respect to active space 
-------------------- Handle with Care -------------------- 

  Amplitude    Excitation in Canonical Basis
   0.904950    14 ->  20
  -0.225943    16 ->  20
   0.308380    17 ->  20

IROOT=  2:  0.034927 au     0.950 eV    7665.5 cm**-1
  Amplitude    Excitation
   0.164369    10 ->  20
  -0.624230    18 ->  20
   0.739044    19 ->  20
  Ground state amplitude:  0.000000

Percentage Active Character     96.01

Warning:: the state may have not converged with respect to active space 
-------------------- Handle with Care -------------------- 

  Amplitude    Excitation in Canonical Basis
  -0.119125     9 ->  20
   0.101286    15 ->  20
   0.628608    18 ->  20
  -0.732915    19 ->  20

IROOT=  3:  0.072305 au     1.968 eV   15869.1 cm**-1
  Amplitude    Excitation
   0.114154     9 ->  20
  -0.388436    15 ->  20
  -0.690313    18 ->  20
  -0.572699    19 ->  20
  Ground state amplitude:  0.000000

Percentage Active Character     97.11

Warning:: the state may have not converged with respect to active space 
-------------------- Handle with Care -------------------- 

  Amplitude    Excitation in Canonical Basis
   0.128127     9 ->  20
   0.224733    10 ->  20
  -0.116549    11 ->  20
  -0.315013    13 ->  20
   0.704230    18 ->  20
   0.546146    19 ->  20

IROOT=  4:  0.147634 au     4.017 eV   32401.9 cm**-1
  Amplitude    Excitation
  -0.760997    11 ->  20
   0.176299    13 ->  20
   0.222940    16 ->  20
   0.574904    17 ->  20
  Ground state amplitude:  0.000000

Percentage Active Character     38.51

Warning:: the state may have not converged with respect to active space 
-------------------- Handle with Care -------------------- 

  Amplitude    Excitation in Canonical Basis
   0.940238    12 ->  20
  -0.143644    14 ->  20
   0.207535    16 ->  20
   0.185568    17 ->  20

IROOT=  5:  0.163385 au     4.446 eV   35858.9 cm**-1
  Amplitude    Excitation
  -0.153832    12 ->  20
  -0.182841    14 ->  20
   0.869435    15 ->  20
  -0.311933    18 ->  20
  -0.233741    19 ->  20
  Ground state amplitude:  0.000000

Percentage Active Character     95.93

Warning:: the state may have not converged with respect to active space 
-------------------- Handle with Care -------------------- 

  Amplitude    Excitation in Canonical Basis
  -0.500981    10 ->  20
   0.385189    11 ->  20
  -0.101268    12 ->  20
   0.638524    13 ->  20
   0.287726    18 ->  20
   0.254375    19 ->  20


STEOM-CCSD done (   34.1 sec)
TDM done (   34.1 sec)
STEOM-CCSD done in (   34.5)


--------------------------------------------------------------------------------
                                    TIMINGS
--------------------------------------------------------------------------------


Total execution time                   ...      744.233 sec

Localization of occupied MO's          ...        0.648 sec (  0.1%)
Fock Matrix Formation                  ...        1.245 sec (  0.2%)
Global overlap, Fock, MKN matrices     ...        0.375 sec (  0.1%)
Differential overlap integrals         ...        0.389 sec (  0.1%)
Organizing maps                        ...        0.009 sec (  0.0%)
RI 3-index integral generations        ...        1.500 sec (  0.2%)
RI-PNO integral transformation         ...        4.920 sec (  0.7%)
Initial Guess                          ...        0.796 sec (  0.1%)
DIIS Solver                            ...        3.413 sec (  0.5%)
State Vector Update                    ...        0.022 sec (  0.0%)
Sigma-vector construction              ...       60.808 sec (  8.2%)
  <D|H|D>(0-ext)                       ...        2.490 sec (  4.1% of sigma)
  <D|H|D>(2-ext Fock)                  ...        0.002 sec (  0.0% of sigma)
  <D|H|D>(2-ext)                       ...        0.900 sec (  1.5% of sigma)
  <D|H|D>(4-ext)                       ...        1.938 sec (  3.2% of sigma)
  <D|H|D>(4-ext-corr)                  ...        2.986 sec (  4.9% of sigma)
  CCSD doubles correction              ...        0.187 sec (  0.3% of sigma)
  <S|H|S>                              ...        3.120 sec (  5.1% of sigma)
  <S|H|D>(1-ext)                       ...        0.038 sec (  0.1% of sigma)
  <D|H|S>(1-ext)                       ...        0.001 sec (  0.0% of sigma)
  <S|H|D>(3-ext)                       ...        0.040 sec (  0.1% of sigma)
  Fock-dressing                        ...        9.081 sec ( 14.9% of sigma)
  Singles amplitudes                   ...        9.938 sec ( 16.3% of sigma)
  (ik|jl)-dressing                     ...        9.380 sec ( 15.4% of sigma)
  (ij|ab),(ia|jb)-dressing             ...        9.569 sec ( 15.7% of sigma)
  Pair energies                        ...        0.367 sec (  0.6% of sigma)
Total Time for computing EOM-CCSD      ...      619.943 sec ( 83.3% of ALL)
  Dressing integrals                   ...        6.381 sec (  1.0% of (EOM))
  Initial EOM-Guess                    ...        0.092 sec (  0.0% of (EOM))
  EOM Singles                          ...        6.007 sec (  1.0% of (EOM))
  EOM Doubles                          ...      187.861 sec ( 30.3% of (EOM))
  Build Hamiltonian                    ...        1.302 sec (  0.2% of (EOM))
  Diagonalize Hamiltonian              ...        0.798 sec (  0.1% of (EOM))
  Ritz vectors                         ...      102.563 sec ( 16.5% of (EOM))
  Residual vectors                     ...      109.423 sec ( 17.7% of (EOM))
One-particle density matrix            ...        0.884 sec (  0.1%)


Maximum memory used throughout the entire MDCI-calculation: 299.2 MB

-------------------------   --------------------
FINAL SINGLE POINT ENERGY      -303.665856176920
-------------------------   --------------------


                            ***************************************
                            *     ORCA property calculations      *
                            ***************************************

                                    ---------------------
                                    Active property flags
                                    ---------------------
   (+) Dipole Moment


------------------------------------------------------------------------------
                       ORCA ELECTRIC PROPERTIES CALCULATION
------------------------------------------------------------------------------

Dipole Moment Calculation                       ... on
Quadrupole Moment Calculation                   ... off
Polarizability Calculation                      ... off
GBWName                                         ... PAA.gbw
Electron density                                ... PAA.scfp
The origin for moment calculation is the CENTER OF MASS  = (-0.237121, -0.051284 -0.006221)

-------------
DIPOLE MOMENT
-------------
                                X             Y             Z
Electronic contribution:     -4.57617       0.54753      -0.05277
Nuclear contribution   :      5.18219      -0.54220       0.10088
                        -----------------------------------------
Total Dipole Moment    :      0.60602       0.00533       0.04811
                        -----------------------------------------
Magnitude (a.u.)       :      0.60795
Magnitude (Debye)      :      1.54528



--------------------
Rotational spectrum 
--------------------
 
Rotational constants in cm-1:     0.381624     0.118726     0.092168 
Rotational constants in MHz : 11440.807780  3559.315544  2763.136346 

 Dipole components along the rotational axes: 
x,y,z [a.u.] :     0.604048    -0.045479     0.051546 
x,y,z [Debye]:     1.535368    -0.115598     0.131019 

 

                           *** MDCI DENSITY ***

------------------------------------------------------------------------------
                       ORCA ELECTRIC PROPERTIES CALCULATION
------------------------------------------------------------------------------

Dipole Moment Calculation                       ... on
Quadrupole Moment Calculation                   ... off
Polarizability Calculation                      ... off
GBWName                                         ... PAA.gbw
Electron density                                ... PAA.mdcip
The origin for moment calculation is the CENTER OF MASS  = (-0.237121, -0.051284 -0.006221)

-------------
DIPOLE MOMENT
-------------
                                X             Y             Z
Electronic contribution:     -3.59520       0.23397      -0.07015
Nuclear contribution   :      5.18219      -0.54220       0.10088
                        -----------------------------------------
Total Dipole Moment    :      1.58700      -0.30823       0.03073
                        -----------------------------------------
Magnitude (a.u.)       :      1.61694
Magnitude (Debye)      :      4.10994



--------------------
Rotational spectrum 
--------------------
 
Rotational constants in cm-1:     0.381624     0.118726     0.092168 
Rotational constants in MHz : 11440.807780  3559.315544  2763.136346 

 Dipole components along the rotational axes: 
x,y,z [a.u.] :     1.603883     0.201649     0.037447 
x,y,z [Debye]:     4.076748     0.512551     0.095183 

 

Timings for individual modules:

Sum of individual times         ...      767.295 sec (=  12.788 min)
GTO integral calculation        ...        1.912 sec (=   0.032 min)   0.2 %
SCF iterations                  ...       19.532 sec (=   0.326 min)   2.5 %
MDCI module                     ...      745.852 sec (=  12.431 min)  97.2 %
                             ****ORCA TERMINATED NORMALLY****
TOTAL RUN TIME: 0 days 0 hours 12 minutes 53 seconds 579 msec
